<?xml version="1.0"?>
<VTKFile type="UnstructuredGrid" version="0.1" byte_order="BigEndian">
<UnstructuredGrid GhostLevel="0">
<Piece NumberOfPoints="15344" NumberOfCells="1918" ><Points>
<DataArray type="Float64" NumberOfComponents="3" format="ascii">
701000	6.204e+06	50	701000	6.204e+06	-50	701500	6.204e+06	50	701500	6.204e+06	-50	701500	6.2035e+06	50	701500	6.2035e+06	-50	701000	6.2035e+06	50	701000	6.2035e+06	-50	701500	6.204e+06	50	701500	6.204e+06	-50	702000	6.204e+06	50	702000	6.204e+06	-50	702000	6.2035e+06	50	702000	6.2035e+06	-50	701500	6.2035e+06	50	701500	6.2035e+06	-50	701500	6.2035e+06	50	701500	6.2035e+06	-50	702000	6.2035e+06	50	702000	6.2035e+06	-50	702000	6.203e+06	50	702000	6.203e+06	-50	701500	6.203e+06	50	701500	6.203e+06	-50	701000	6.2035e+06	50	701000	6.2035e+06	-50	701500	6.2035e+06	50	701500	6.2035e+06	-50	701500	6.203e+06	50	701500	6.203e+06	-50	701000	6.203e+06	50	701000	6.203e+06	-50	702000	6.204e+06	50	702000	6.204e+06	-50	703000	6.204e+06	50	703000	6.204e+06	-50	703000	6.203e+06	50	703000	6.203e+06	-50	702000	6.203e+06	50	702000	6.203e+06	-50	703000	6.204e+06	50	703000	6.204e+06	-50	704000	6.204e+06	50	704000	6.204e+06	-50	704000	6.203e+06	50	704000	6.203e+06	-50	703000	6.203e+06	50	703000	6.203e+06	-50	704000	6.204e+06	50	704000	6.204e+06	-50	705000	6.204e+06	50	705000	6.204e+06	-50	705000	6.203e+06	50	705000	6.203e+06	-50	704000	6.203e+06	50	704000	6.203e+06	-50	701000	6.203e+06	50	701000	6.203e+06	-50	702000	6.203e+06	50	702000	6.203e+06	-50	702000	6.202e+06	50	702000	6.202e+06	-50	701000	6.202e+06	50	701000	6.202e+06	-50	702000	6.203e+06	50	702000	6.203e+06	-50	703000	6.203e+06	50	703000	6.203e+06	-50	703000	6.202e+06	50	703000	6.202e+06	-50	702000	6.202e+06	50	702000	6.202e+06	-50	703000	6.203e+06	50	703000	6.203e+06	-50	704000	6.203e+06	50	704000	6.203e+06	-50	704000	6.202e+06	50	704000	6.202e+06	-50	703000	6.202e+06	50	703000	6.202e+06	-50	704000	6.203e+06	50	704000	6.203e+06	-50	705000	6.203e+06	50	705000	6.203e+06	-50	705000	6.202e+06	50	705000	6.202e+06	-50	704000	6.202e+06	50	704000	6.202e+06	-50	701000	6.202e+06	50	701000	6.202e+06	-50	702000	6.202e+06	50	702000	6.202e+06	-50	702000	6.201e+06	50	702000	6.201e+06	-50	701000	6.201e+06	50	701000	6.201e+06	-50	702000	6.202e+06	50	702000	6.202e+06	-50	703000	6.202e+06	50	703000	6.202e+06	-50	703000	6.201e+06	50	703000	6.201e+06	-50	702000	6.201e+06	50	702000	6.201e+06	-50	703000	6.202e+06	50	703000	6.202e+06	-50	704000	6.202e+06	50	704000	6.202e+06	-50	704000	6.201e+06	50	704000	6.201e+06	-50	703000	6.201e+06	50	703000	6.201e+06	-50	704000	6.202e+06	50	704000	6.202e+06	-50	705000	6.202e+06	50	705000	6.202e+06	-50	705000	6.201e+06	50	705000	6.201e+06	-50	704000	6.201e+06	50	704000	6.201e+06	-50	702000	6.201e+06	50	702000	6.201e+06	-50	703000	6.201e+06	50	703000	6.201e+06	-50	703000	6.2e+06	50	703000	6.2e+06	-50	702000	6.2e+06	50	702000	6.2e+06	-50	703000	6.201e+06	50	703000	6.201e+06	-50	704000	6.201e+06	50	704000	6.201e+06	-50	704000	6.2e+06	50	704000	6.2e+06	-50	703000	6.2e+06	50	703000	6.2e+06	-50	704000	6.201e+06	50	704000	6.201e+06	-50	705000	6.201e+06	50	705000	6.201e+06	-50	705000	6.2e+06	50	705000	6.2e+06	-50	704000	6.2e+06	50	704000	6.2e+06	-50	700000	6.2e+06	50	700000	6.2e+06	-50	701000	6.2e+06	50	701000	6.2e+06	-50	701000	6.199e+06	50	701000	6.199e+06	-50	700000	6.199e+06	50	700000	6.199e+06	-50	701000	6.2e+06	50	701000	6.2e+06	-50	702000	6.2e+06	50	702000	6.2e+06	-50	702000	6.199e+06	50	702000	6.199e+06	-50	701000	6.199e+06	50	701000	6.199e+06	-50	702000	6.2e+06	50	702000	6.2e+06	-50	703000	6.2e+06	50	703000	6.2e+06	-50	703000	6.199e+06	50	703000	6.199e+06	-50	702000	6.199e+06	50	702000	6.199e+06	-50	703000	6.2e+06	50	703000	6.2e+06	-50	704000	6.2e+06	50	704000	6.2e+06	-50	704000	6.199e+06	50	704000	6.199e+06	-50	703000	6.199e+06	50	703000	6.199e+06	-50	704000	6.2e+06	50	704000	6.2e+06	-50	705000	6.2e+06	50	705000	6.2e+06	-50	705000	6.199e+06	50	705000	6.199e+06	-50	704000	6.199e+06	50	704000	6.199e+06	-50	700000	6.199e+06	50	700000	6.199e+06	-50	701000	6.199e+06	50	701000	6.199e+06	-50	701000	6.198e+06	50	701000	6.198e+06	-50	700000	6.198e+06	50	700000	6.198e+06	-50	701000	6.199e+06	50	701000	6.199e+06	-50	702000	6.199e+06	50	702000	6.199e+06	-50	702000	6.198e+06	50	702000	6.198e+06	-50	701000	6.198e+06	50	701000	6.198e+06	-50	702000	6.199e+06	50	702000	6.199e+06	-50	703000	6.199e+06	50	703000	6.199e+06	-50	703000	6.198e+06	50	703000	6.198e+06	-50	702000	6.198e+06	50	702000	6.198e+06	-50	703000	6.199e+06	50	703000	6.199e+06	-50	704000	6.199e+06	50	704000	6.199e+06	-50	704000	6.198e+06	50	704000	6.198e+06	-50	703000	6.198e+06	50	703000	6.198e+06	-50	704000	6.199e+06	50	704000	6.199e+06	-50	705000	6.199e+06	50	705000	6.199e+06	-50	705000	6.198e+06	50	705000	6.198e+06	-50	704000	6.198e+06	50	704000	6.198e+06	-50	699500	6.1975e+06	50	699500	6.1975e+06	-50	700000	6.1975e+06	50	700000	6.1975e+06	-50	700000	6.197e+06	50	700000	6.197e+06	-50	699500	6.197e+06	50	699500	6.197e+06	-50	700000	6.198e+06	50	700000	6.198e+06	-50	701000	6.198e+06	50	701000	6.198e+06	-50	701000	6.197e+06	50	701000	6.197e+06	-50	700000	6.197e+06	50	700000	6.197e+06	-50	701000	6.198e+06	50	701000	6.198e+06	-50	702000	6.198e+06	50	702000	6.198e+06	-50	702000	6.197e+06	50	702000	6.197e+06	-50	701000	6.197e+06	50	701000	6.197e+06	-50	702000	6.198e+06	50	702000	6.198e+06	-50	703000	6.198e+06	50	703000	6.198e+06	-50	703000	6.197e+06	50	703000	6.197e+06	-50	702000	6.197e+06	50	702000	6.197e+06	-50	703000	6.198e+06	50	703000	6.198e+06	-50	704000	6.198e+06	50	704000	6.198e+06	-50	704000	6.197e+06	50	704000	6.197e+06	-50	703000	6.197e+06	50	703000	6.197e+06	-50	704000	6.198e+06	50	704000	6.198e+06	-50	705000	6.198e+06	50	705000	6.198e+06	-50	705000	6.197e+06	50	705000	6.197e+06	-50	704000	6.197e+06	50	704000	6.197e+06	-50	698500	6.1965e+06	50	698500	6.1965e+06	-50	699000	6.1965e+06	50	699000	6.1965e+06	-50	699000	6.196e+06	50	699000	6.196e+06	-50	698500	6.196e+06	50	698500	6.196e+06	-50	698000	6.1965e+06	50	698000	6.1965e+06	-50	698500	6.1965e+06	50	698500	6.1965e+06	-50	698500	6.196e+06	50	698500	6.196e+06	-50	698000	6.196e+06	50	698000	6.196e+06	-50	699000	6.197e+06	50	699000	6.197e+06	-50	700000	6.197e+06	50	700000	6.197e+06	-50	700000	6.196e+06	50	700000	6.196e+06	-50	699000	6.196e+06	50	699000	6.196e+06	-50	700000	6.197e+06	50	700000	6.197e+06	-50	701000	6.197e+06	50	701000	6.197e+06	-50	701000	6.196e+06	50	701000	6.196e+06	-50	700000	6.196e+06	50	700000	6.196e+06	-50	701000	6.197e+06	50	701000	6.197e+06	-50	702000	6.197e+06	50	702000	6.197e+06	-50	702000	6.196e+06	50	702000	6.196e+06	-50	701000	6.196e+06	50	701000	6.196e+06	-50	702000	6.197e+06	50	702000	6.197e+06	-50	703000	6.197e+06	50	703000	6.197e+06	-50	703000	6.196e+06	50	703000	6.196e+06	-50	702000	6.196e+06	50	702000	6.196e+06	-50	703000	6.197e+06	50	703000	6.197e+06	-50	704000	6.197e+06	50	704000	6.197e+06	-50	704000	6.196e+06	50	704000	6.196e+06	-50	703000	6.196e+06	50	703000	6.196e+06	-50	704000	6.197e+06	50	704000	6.197e+06	-50	705000	6.197e+06	50	705000	6.197e+06	-50	705000	6.196e+06	50	705000	6.196e+06	-50	704000	6.196e+06	50	704000	6.196e+06	-50	695000	6.196e+06	50	695000	6.196e+06	-50	696000	6.196e+06	50	696000	6.196e+06	-50	696000	6.195e+06	50	696000	6.195e+06	-50	695000	6.195e+06	50	695000	6.195e+06	-50	696500	6.1955e+06	50	696500	6.1955e+06	-50	697000	6.1955e+06	50	697000	6.1955e+06	-50	697000	6.195e+06	50	697000	6.195e+06	-50	696500	6.195e+06	50	696500	6.195e+06	-50	696000	6.1955e+06	50	696000	6.1955e+06	-50	696500	6.1955e+06	50	696500	6.1955e+06	-50	696500	6.195e+06	50	696500	6.195e+06	-50	696000	6.195e+06	50	696000	6.195e+06	-50	697000	6.196e+06	50	697000	6.196e+06	-50	698000	6.196e+06	50	698000	6.196e+06	-50	698000	6.195e+06	50	698000	6.195e+06	-50	697000	6.195e+06	50	697000	6.195e+06	-50	698000	6.196e+06	50	698000	6.196e+06	-50	699000	6.196e+06	50	699000	6.196e+06	-50	699000	6.195e+06	50	699000	6.195e+06	-50	698000	6.195e+06	50	698000	6.195e+06	-50	699000	6.196e+06	50	699000	6.196e+06	-50	700000	6.196e+06	50	700000	6.196e+06	-50	700000	6.195e+06	50	700000	6.195e+06	-50	699000	6.195e+06	50	699000	6.195e+06	-50	700000	6.196e+06	50	700000	6.196e+06	-50	701000	6.196e+06	50	701000	6.196e+06	-50	701000	6.195e+06	50	701000	6.195e+06	-50	700000	6.195e+06	50	700000	6.195e+06	-50	701000	6.196e+06	50	701000	6.196e+06	-50	702000	6.196e+06	50	702000	6.196e+06	-50	702000	6.195e+06	50	702000	6.195e+06	-50	701000	6.195e+06	50	701000	6.195e+06	-50	702000	6.196e+06	50	702000	6.196e+06	-50	703000	6.196e+06	50	703000	6.196e+06	-50	703000	6.195e+06	50	703000	6.195e+06	-50	702000	6.195e+06	50	702000	6.195e+06	-50	703000	6.196e+06	50	703000	6.196e+06	-50	704000	6.196e+06	50	704000	6.196e+06	-50	704000	6.195e+06	50	704000	6.195e+06	-50	703000	6.195e+06	50	703000	6.195e+06	-50	693000	6.195e+06	50	693000	6.195e+06	-50	694000	6.195e+06	50	694000	6.195e+06	-50	694000	6.194e+06	50	694000	6.194e+06	-50	693000	6.194e+06	50	693000	6.194e+06	-50	694000	6.195e+06	50	694000	6.195e+06	-50	695000	6.195e+06	50	695000	6.195e+06	-50	695000	6.194e+06	50	695000	6.194e+06	-50	694000	6.194e+06	50	694000	6.194e+06	-50	695000	6.195e+06	50	695000	6.195e+06	-50	695500	6.195e+06	50	695500	6.195e+06	-50	695500	6.1945e+06	50	695500	6.1945e+06	-50	695000	6.1945e+06	50	695000	6.1945e+06	-50	695500	6.195e+06	50	695500	6.195e+06	-50	696000	6.195e+06	50	696000	6.195e+06	-50	696000	6.1945e+06	50	696000	6.1945e+06	-50	695500	6.1945e+06	50	695500	6.1945e+06	-50	695500	6.1945e+06	50	695500	6.1945e+06	-50	696000	6.1945e+06	50	696000	6.1945e+06	-50	696000	6.194e+06	50	696000	6.194e+06	-50	695500	6.194e+06	50	695500	6.194e+06	-50	695000	6.1945e+06	50	695000	6.1945e+06	-50	695500	6.1945e+06	50	695500	6.1945e+06	-50	695500	6.194e+06	50	695500	6.194e+06	-50	695000	6.194e+06	50	695000	6.194e+06	-50	696000	6.195e+06	50	696000	6.195e+06	-50	696500	6.195e+06	50	696500	6.195e+06	-50	696500	6.1945e+06	50	696500	6.1945e+06	-50	696000	6.1945e+06	50	696000	6.1945e+06	-50	696500	6.195e+06	50	696500	6.195e+06	-50	696750	6.195e+06	50	696750	6.195e+06	-
[...]
<CellData Scalars="scalars">
<DataArray type="Int32" Name="nodeid" format="ascii">2783	2784	2786	2785	93	94	95	142	143	144	145	192	193	194	195	243	244	245	291	292	293	294	295	341	342	343	344	345	2958	391	392	393	394	395	2966	2965	440	441	442	443	444	445	486	2970	2969	488	489	490	491	492	493	494	534	535	2971	2972	2974	2973	2975	2979	2980	2982	2981	2991	2992	2994	2993	2988	2990	2989	2983	2984	2986	2985	2995	2996	2998	2997	539	540	541	542	543	544	584	585	586	2999	3000	3002	3001	588	589	590	591	592	593	594	632	633	634	635	636	637	638	639	640	641	642	643	644	682	683	684	685	686	687	3031	3032	3034	3033	689	690	691	692	693	694	727	728	729	730	731	732	733	734	735	736	3063	3064	3067	3068	3070	3069	3065	3075	3076	3078	3077	3072	3074	3083	3084	3086	3085	3080	3082	3081	739	740	741	742	743	744	777	3099	3100	3102	3101	3103	3104	3106	3107	3108	3110	3109	780	781	782	783	784	785	786	3111	3112	3114	3113	3115	3116	3118	3117	789	790	791	792	793	794	3122	3123	3127	3128	3130	3129	3139	3140	3142	3141	3131	3132	3135	3136	3138	3137	3133	3151	3152	3154	3153	3148	3150	3149	3144	3146	3145	830	831	832	833	834	835	836	837	838	839	840	841	842	843	844	3155	3156	3158	3157	3163	3164	3166	3165	3160	3162	3161	879	880	881	882	883	884	885	886	887	888	889	890	891	892	893	894	926	927	928	929	930	931	932	933	934	935	936	937	938	939	940	941	942	943	944	976	977	978	979	980	981	982	983	984	985	986	987	988	989	990	991	992	993	994	1024	1025	1026	1027	1028	1029	1030	1031	1032	1033	1034	1035	1036	1037	1038	1039	1040	1041	1042	1043	1044	1072	1073	1074	1075	1076	1077	1078	1079	1080	1081	1082	1083	1084	1085	1086	1087	1088	1089	1090	1091	1092	1093	1094	1123	1124	1125	3167	3168	3171	3172	3174	3173	3169	3175	3176	3178	3177	1128	1129	1130	1131	1132	1133	1134	1135	1136	1137	1138	1139	1140	1141	1142	1143	1144	1170	1171	1172	1173	1174	3179	3180	3182	3181	3187	3188	3190	3189	3195	3196	3198	3197	3192	3194	3193	3186	3185	3199	3200	3202	3201	1178	1179	1180	1181	1182	1183	1184	1185	1186	1187	1188	1189	1190	1191	1192	1193	1194	1218	1219	1220	1221	1222	1223	1224	1225	1226	1227	1228	1229	1230	3203	3204	3206	3205	1232	1233	1234	3207	3208	3210	3209	3211	3212	3214	3213	1237	1238	1239	1240	3215	3216	3218	3217	3219	3220	3223	3224	3227	3228	3230	3229	3225	3221	3231	3232	3234	3235	3236	3238	3237	3239	3241	1264	1265	1266	1267	1268	1269	1270	1271	1272	1273	1274	1275	1276	1277	1278	1279	1280	3247	3251	3252	3254	3253	3255	3259	3260	3262	3261	3258	3257	3249	3263	3264	3266	3267	3268	3270	3269	3271	3272	3274	3273	3275	3276	3283	3284	3286	3285	3279	3280	3282	3281	3287	3291	3292	3294	3293	3299	3300	3302	3301	3295	3296	3298	3297	3307	3308	3310	3309	3311	3312	3314	3313	3315	3316	3318	3317	3305	3319	3320	3327	3328	3330	3329	3323	3324	3326	3325	3331	3332	3339	3340	3342	3341	3335	3336	3338	3337	3343	3344	3351	3352	3354	3353	3347	3348	3350	3349	3355	3356	3363	3364	3366	3365	3359	3360	3362	3361	3367	3371	3372	3374	3373	3379	3380	3382	3381	3375	3376	3378	3377	3387	3388	3390	3389	3391	3392	3394	3393	3399	3400	3402	3401	3395	3396	3398	3397	3403	3404	3407	3408	3410	3409	3405	3415	3416	3418	3417	3427	3428	3430	3429	1312	3444	3446	3445	3447	3448	3450	3451	3452	3454	3453	3455	3456	3458	3457	3459	3460	3462	3461	1317	1318	1319	1320	1321	1322	1323	1324	1325	1326	1327	3463	3464	3466	3465	3467	3468	3470	3469	3471	3472	3474	3473	3475	3476	3483	3484	3486	3485	3479	3480	3482	3481	3487	3491	3492	3494	3493	3499	3500	3502	3501	3495	3496	3498	3497	3507	3508	3510	3509	3511	3512	3514	3513	3506	3505	3519	3520	3522	3521	3516	3518	3517	3523	3524	3526	3525	3527	3528	3530	3529	3531	3532	3534	3533	3535	3536	3538	3537	3539	3540	3542	3541	3543	3547	3548	3550	3549	3546	3545	3555	3556	3558	3557	3552	3554	3553	3559	3563	3564	3566	3565	3562	3561	3571	3572	3574	3573	3575	3576	3578	3577	3570	3569	3579	3581	3590	3595	3596	3598	3597	3593	3599	3600	3607	3608	3610	3609	3603	3604	3606	3605	3615	3616	3618	3617	3619	3620	3622	3621	3614	3623	3624	3626	3625	3631	3632	3634	3633	3635	3636	3638	3637	3630	3629	3643	3644	3646	3645	3647	3648	3650	3649	3651	3652	3654	3653	3641	3659	3660	3662	3661	3656	3667	3668	3670	3669	3663	3664	3666	3665	3671	3672	3679	3680	3682	3681	3675	3676	3678	3677	3683	3684	3686	3685	3687	3688	3690	3689	1370	1371	1372	1373	1374	3691	3692	3694	3693	3695	3696	3698	3697	3699	3700	3707	3708	3710	3709	3703	3704	3706	3705	3711	3715	3716	3718	3717	3723	3724	3726	3725	3719	3720	3722	3721	3731	3732	3734	3733	3735	3736	3738	3737	3730	3729	3743	3744	3746	3745	3747	3748	3750	3749	3742	3741	3755	3756	3758	3757	3752	3754	3753	3759	3760	3762	3761	3763	3764	3766	3765	1384	1385	1386	1387	1388	1389	1390	1391	3767	3768	3770	3769	3771	3772	3783	3784	3786	3785	3775	3776	3779	3780	3782	3781	3777	3787	3789	1409	3819	3823	3824	3826	3825	3827	3828	3830	3829	3821	3835	3836	3838	3837	3839	3840	3842	3841	3834	3833	3843	3844	3846	3845	3847	3848	3850	3849	1414	3851	3852	3854	3853	3855	3856	3858	3857	3859	3863	3864	3866	3865	3862	3861	3871	3872	3874	3873	3875	3876	3878	3877	3870	3869	3883	3884	3886	3885	3880	3891	3892	3894	3893	3887	3888	3890	3889	3895	3896	3903	3904	3906	3905	3899	3900	3902	3901	3907	3908	3915	3916	3918	3917	3911	3912	3914	3913	3919	3920	3922	3923	3924	3926	3925	3927	3928	3935	3936	3938	3937	3931	3932	3934	3933	3939	3940	3947	3948	3950	3949	3943	3944	3946	3945	3955	3956	3958	3957	3959	3960	3962	3961	3954	3963	3964	3966	3965	3971	3972	3974	3973	3975	3976	3978	3977	3970	3969	3983	3984	3986	3985	3980	3982	3981	3987	3988	3990	3989	1429	1430	1431	3991	3992	3994	3993	3995	3999	4000	4002	4001	4011	4012	4014	4013	4008	4010	4009	4003	4004	4006	4005	4015	4016	4018	4017	1435	1436	1437	1438	1439	1440	1441	4019	4020	4022	4021	4027	4028	4030	4029	4024	4026	4025	1444	4036	4039	4040	4042	4041	4043	4044	4051	4052	4054	4053	4047	4048	4050	4049	4059	4060	4062	4061	4063	4064	4066	4065	4058	4067	4068	4070	4069	4071	4072	4074	4073	1462	1463	1464	1465	1466	1467	1468	4075	4076	4078	4077	4079	4080	4082	4081	4083	4084	4086	4085	4091	4092	4094	4093	4095	4096	4098	4097	4090	4089	4103	4104	4106	4105	4100	4102	4101	4107	4108	4110	4109	4111	4112	4114	4113	1476	1477	1478	1479	1480	1481	1482	4115	4116	4118	4117	1484	1485	1486	1487	1488	1489	1490	1491	1492	1493	4130	4129	4136	4138	4137	4139	4140	4142	4141	4134	4143	4144	4146	4145	4147	4148	4150	4149	4151	4152	4154	4153	1511	1512	1513	1514	1515	1516	1517	1518	1519	1520	1521	1522	4155	4156	4158	4157	4159	4160	4162	4163	4164	4166	4165	1525	1526	1527	1528	1529	1530	1531	1532	1533	1534	1535	1536	1537	1538	1539	4167	4168	4171	4172	4174	4173	4169	4175	4176	4178	4177	1542	1543	4194	4195	4196	4198	4197	4185	4206	4205	4210	4209	4202	4211	4212	4214	4213	4220	4222	4221	4223	4224	4226	4225	4218	4217	4231	4232	4234	4233	4228	4230	4229	1559	1560	1561	1562	1563	1564	1565	1566	1567	1568	1569	1570	1571	1572	4235	4239	4240	4242	4241	4238	4237	4251	4252	4254	4253	4248	4250	4249	4244	4246	4245	1575	1576	1577	1578	1579	1580	1581	1582	1583	1584	1585	1586	1587	1588	1589	4255	4259	4263	4264	4266	4265	4262	4261	4258	4257	4271	4272	4274	4273	4268	4270	4269	1592	1593	4303	4304	4306	4305	4307	4308	4310	4309	1607	1608	1609	1610	1611	1612	1615	1616	1617	1618	1619	1620	1621	1622	1623	1624	1625	1626	1627	1628	1629	1630	1631	1632	1633	1634	1635	1636	1637	1638	1639	1640	1641	1642	1643	1666	1667	1668	1669	1670	1671	1672	1673	1674	1675	1676	1677	1678	1679	1680	1681	1682	1683	1684	1685	1686	1687	1688	1689	1690	1691	1692	1693	1694	1718	1719	1720	1721	1722	1723	1724	1725	1726	1727	1728	1729	1730	1731	1732	1733	1734	1735	1736	1737	1738	1739	1740	1741	1742	1743	1744	1769	1770	1771	1772	1773	1774	1775	1776	1777	1778	1779	1780	1781	1782	1783	1784	1785	1786	1787	1788	1789	1790	1791	1792	1793	1794	1819	1820	1821	1822	1823	1824	1825	1826	1827	1828	1829	1830	1831	1832	1833	1834	1835	1836	1837	1838	1839	1840	1841	1842	1843	1844	1869	1870	1871	1872	1873	1874	1875	1876	1877	1878	1879	1880	1881	1882	1883	1884	1885	1886	1887	1888	1889	1890	1891	1892	1893	1894	1919	1920	1921	1922	1923	1924	1925	1926	1927	1928	1929	1930	1931	1932	1933	1934	1935	1936	1937	1938	1939	1940	1941	1942	1943	1944	1968	1969	1970	1971	1972	1973	1974	1975	1976	1977	1978	1979	1980	1981	1982	1983	1984	1985	1986	1987	1988	1989	1990	1991	1992	1993	1994	2019	2020	2021	2022	2023	2024	2025	2026	2027	2028	2029	2030	2031	2032	2033	2034	2035	2036	2037	2038	2039	2040	2041	2042	2043	2044	2069	2070	2071	2072	2073	2074	2075	2076	2077	2078	2079	2080	2081	2082	2083	2084	2085	2086	2087	2088	2089	2090	2091	2092	2093	2094	2120	2121	2122	2123	2124	2125	2126	2127	2128	2129	2130	2131	2132	2133	2134	2135	2136	2137	2138	2139	2140	2141	2142	2143	4359	4360	4362	4361	2171	2172	2173	2174	2175	2176	2177	2178	2179	2180	2181	2182	2183	2184	2185	2186	2187	2188	2189	2190	2191	2192	2193	2194	4391	4393	2221	2222	2223	2224	2225	2226	2227	2228	2229	2230	2231	2232	2233	2234	2235	2236	2237	2238	2239	2240	2241	2242	2243	2244	2245	2271	2272	2273	2274	2275	2276	2277	2278	2279	2280	2281	2282	2283	2284	2285	2286	2287	2288	2289	2290	2291	2292	2293	4483	4484	4491	4492	4494	4495	4496	4498	2320	2321	2322	2323	2324	2325	2326	2327	2328	2330	2331	2332	2333	2334	2335	2336	2337	2338	2339	2370	2371	2372	2373	2374	2375	2376	2382	2383	2384	2385	2386	2387	2418	2419	4583	4584	4586	4585	2421	2422	4587	4588	4590	4589	4591	4592	4599	4600	4602	4603	4604	4606	4605	4595	4596	4598	4597	4607	4608	4610	4609	2468	4623	4624	4626	4627	4631	4632	4634	4633	4643	4644	4646	4645	4640	4642	4641	4635	4636	4638	4637	4647	4648	4650	4649	2472	2473	4651	4655	4656	4658	4657	4654	4653	4659	4660	4661	2519	4667	4668	4670	4669	2521	2522	2523	2524	2525	2570	2571	2572	2573	2574	</DataArray>
<DataArray type="Int32" Name="nodenumber" format="ascii">1	2	4	3	5	6	7	8	9	10	11	12	13	14	15	16	17	18	19	20	21	22	23	24	25	26	27	28	29	30	31	32	33	34	36	35	37	38	39	40	41	42	43	45	44	46	47	48	49	50	51	52	53	54	55	56	58	57	59	60	61	63	62	68	69	71	70	72	74	73	64	65	67	66	75	76	78	77	79	80	81	82	83	84	85	86	87	88	89	91	90	92	93	94	95	96	97	98	99	100	101	102	103	104	105	106	107	108	109	110	111	112	113	114	115	116	117	118	119	121	120	122	123	124	125	126	127	128	129	130	131	132	133	134	135	136	137	138	139	141	142	144	143	140	145	146	148	147	149	157	150	151	153	152	154	156	155	158	159	160	161	162	163	164	165	166	168	167	169	170	175	171	172	174	173	176	177	178	179	180	181	182	183	184	186	185	187	188	190	189	191	192	193	194	195	196	197	198	199	200	202	201	210	211	213	212	203	204	206	207	209	208	205	214	215	217	216	218	220	219	221	223	222	224	225	226	227	228	229	230	231	232	233	234	235	236	237	238	239	240	242	241	243	244	246	245	247	249	248	250	251	252	253	254	255	256	257	258	259	260	261	262	263	264	265	266	267	268	269	270	271	272	273	274	275	276	277	278	279	280	281	282	283	284	285	286	287	288	289	290	291	292	293	294	295	296	297	298	299	300	301	302	303	304	305	306	307	308	309	310	311	312	313	314	315	316	317	318	319	320	321	322	323	324	325	326	327	328	329	330	331	332	333	334	335	336	337	338	339	340	341	342	343	344	345	346	347	348	349	350	351	352	354	355	357	356	353	358	359	361	360	362	363	364	365	366	367	368	369	370	371	372	373	374	375	376	377	378	379	380	381	382	383	384	385	387	386	388	389	391	390	392	393	395	394	396	398	397	400	399	401	402	404	403	405	406	407	408	409	410	411	412	413	414	415	416	417	418	419	420	421	422	423	424	425	426	427	428	429	430	431	432	433	434	435	436	438	437	439	440	441	442	443	445	444	446	447	449	448	450	451	452	453	454	455	457	456	458	459	461	462	464	465	467	466	463	460	468	469	474	470	471	473	472	475	476	477	478	479	480	481	482	483	484	485	486	487	488	489	490	491	492	493	494	495	496	498	497	500	501	502	504	503	506	505	499	507	508	513	509	510	512	511	514	515	517	516	518	519	524	525	527	526	520	521	523	522	528	529	530	532	531	537	538	540	539	533	534	536	535	541	542	544	543	545	546	548	547	550	551	553	552	549	554	555	560	561	563	562	556	557	559	558	564	565	570	571	573	572	566	567	569	568	574	575	580	581	583	582	576	577	579	578	584	585	590	591	593	592	586	587	589	588	594	595	596	598	597	603	604	606	605	599	600	602	601	607	608	610	609	611	612	614	613	619	620	622	621	615	616	618	617	623	624	626	627	629	628	625	630	631	633	632	634	635	637	636	638	639	641	640	642	643	648	644	645	647	646	649	650	652	651	653	654	656	655	657	658	659	660	661	662	663	664	665	666	667	668	669	671	670	672	673	675	674	676	677	679	678	680	681	686	687	689	688	682	683	685	684	690	691	692	694	693	699	700	702	701	695	696	698	697	703	704	706	705	707	708	710	709	712	711	713	714	716	715	717	719	718	720	721	723	722	724	725	727	726	728	729	731	730	732	733	735	734	736	737	739	738	740	741	742	744	743	746	745	747	748	750	749	751	753	752	754	755	756	758	757	760	759	761	762	764	763	765	766	768	767	770	769	771	772	773	775	776	778	777	774	779	780	785	786	788	787	781	782	784	783	789	790	792	791	793	794	796	795	801	797	798	800	799	802	803	805	804	806	807	809	808	811	810	812	813	815	814	816	817	819	818	821	822	824	823	820	825	826	828	827	829	834	835	837	836	830	831	833	832	838	839	844	845	847	846	840	841	843	842	848	849	851	850	852	853	855	854	856	857	858	859	860	861	862	864	863	865	866	868	867	869	870	875	876	878	877	871	872	874	873	879	880	881	883	882	888	889	891	890	884	885	887	886	892	893	895	894	896	897	899	898	901	900	902	903	905	904	906	907	909	908	911	910	912	913	915	914	916	918	917	919	920	922	921	923	924	926	925	927	928	929	930	931	932	933	934	935	936	938	937	939	940	948	949	951	950	941	942	944	945	947	946	943	952	953	954	955	956	957	959	958	961	962	964	963	960	965	966	968	967	969	970	972	971	974	973	975	976	978	977	979	980	982	981	983	984	985	987	986	988	989	991	990	992	993	994	996	995	998	997	999	1000	1002	1001	1003	1004	1006	1005	1008	1007	1009	1010	1012	1011	1013	1018	1019	1021	1020	1014	1015	1017	1016	1022	1023	1028	1029	1031	1030	1024	1025	1027	1026	1032	1033	1038	1039	1041	1040	1034	1035	1037	1036	1042	1043	1048	1044	1045	1047	1046	1049	1050	1055	1056	1058	1057	1051	1052	1054	1053	1059	1060	1065	1066	1068	1067	1061	1062	1064	1063	1069	1070	1072	1071	1073	1074	1076	1075	1081	1077	1078	1080	1079	1082	1083	1085	1084	1086	1087	1089	1088	1091	1090	1092	1093	1095	1094	1096	1098	1097	1099	1100	1102	1101	1103	1104	1105	1106	1107	1109	1108	1110	1111	1112	1114	1113	1119	1120	1122	1121	1123	1125	1124	1115	1116	1118	1117	1126	1127	1129	1128	1130	1131	1132	1133	1134	1135	1136	1137	1138	1140	1139	1141	1142	1144	1143	1145	1147	1146	1148	1149	1150	1151	1153	1152	1154	1155	1160	1161	1163	1162	1156	1157	1159	1158	1164	1165	1167	1166	1168	1169	1171	1170	1176	1172	1173	1175	1174	1177	1178	1180	1179	1181	1182	1183	1184	1185	1186	1187	1188	1189	1191	1190	1192	1193	1195	1194	1196	1197	1199	1198	1200	1201	1203	1202	1204	1205	1207	1206	1209	1208	1210	1211	1213	1212	1214	1216	1215	1217	1218	1220	1219	1221	1222	1224	1223	1225	1226	1227	1228	1229	1230	1231	1232	1233	1235	1234	1236	1237	1238	1239	1240	1241	1242	1243	1244	1245	1247	1246	1248	1250	1249	1251	1252	1254	1253	1259	1255	1256	1258	1257	1260	1261	1263	1262	1264	1265	1267	1266	1268	1269	1270	1271	1272	1273	1274	1275	1276	1277	1278	1279	1280	1281	1283	1282	1284	1285	1290	1286	1287	1289	1288	1291	1292	1293	1294	1295	1296	1297	1298	1299	1300	1301	1302	1303	1304	1305	1306	1307	1309	1310	1312	1311	1308	1313	1314	1316	1315	1317	1318	1319	1321	1322	1324	1323	1320	1326	1325	1328	1327	1333	1329	1330	1332	1331	1334	1336	1335	1337	1338	1340	1339	1342	1341	1343	1344	1346	1345	1347	1349	1348	1350	1351	1352	1353	1354	1355	1356	1357	1358	1359	1360	1361	1362	1363	1364	1365	1366	1368	1367	1370	1369	1371	1372	1374	1373	1375	1377	1376	1378	1380	1379	1381	1382	1383	1384	1385	1386	1387	1388	1389	1390	1391	1392	1393	1394	1395	1396	1397	1398	1399	1401	1400	1403	1402	1405	1404	1406	1407	1409	1408	1410	1412	1411	1413	1414	1415	1416	1418	1417	1419	1420	1422	1421	1423	1424	1425	1426	1427	1428	1429	1430	1431	1432	1433	1434	1435	1436	1437	1438	1439	1440	1441	1442	1443	1444	1445	1446	1447	1448	1449	1450	1451	1452	1453	1454	1455	1456	1457	1458	1459	1460	1461	1462	1463	1464	1465	1466	1467	1468	1469	1470	1471	1472	1473	1474	1475	1476	1477	1478	1479	1480	1481	1482	1483	1484	1485	1486	1487	1488	1489	1490	1491	1492	1493	1494	1495	1496	1497	1498	1499	1500	1501	1502	1503	1504	1505	1506	1507	1508	1509	1510	1511	1512	1513	1514	1515	1516	1517	1518	1519	1520	1521	1522	1523	1524	1525	1526	1527	1528	1529	1530	1531	1532	1533	1534	1535	1536	1537	1538	1539	1540	1541	1542	1543	1544	1545	1546	1547	1548	1549	1550	1551	1552	1553	1554	1555	1556	1557	1558	1559	1560	1561	1562	1563	1564	1565	1566	1567	1568	1569	1570	1571	1572	1573	1574	1575	1576	1577	1578	1579	1580	1581	1582	1583	1584	1585	1586	1587	1588	1589	1590	1591	1592	1593	1594	1595	1596	1597	1598	1599	1600	1601	1602	1603	1604	1605	1606	1607	1608	1609	1610	1611	1612	1613	1614	1615	1616	1617	1618	1619	1620	1621	1622	1623	1624	1625	1626	1627	1628	1629	1630	1631	1632	1633	1634	1635	1636	1637	1638	1639	1640	1641	1642	1643	1644	1645	1646	1647	1648	1649	1650	1651	1652	1653	1654	1655	1656	1657	1658	1659	1660	1661	1662	1663	1664	1665	1666	1667	1668	1669	1670	1671	1672	1673	1674	1675	1676	1677	1678	1679	1680	1681	1682	1683	1684	1685	1686	1687	1688	1689	1690	1691	1692	1693	1694	1695	1696	1697	1698	1699	1700	1701	1702	1703	1704	1705	1706	1707	1708	1709	1710	1711	1712	1713	1714	1715	1716	1717	1718	1719	1720	1721	1722	1724	1723	1725	1726	1727	1728	1729	1730	1731	1732	1733	1734	1735	1736	1737	1738	1739	1740	1741	1742	1743	1744	1745	1746	1747	1748	1749	1750	1751	1752	1753	1754	1755	1756	1757	1758	1759	1760	1761	1762	1763	1764	1765	1766	1767	1768	1769	1770	1771	1772	1773	1774	1775	1776	1777	1778	1779	1780	1781	1782	1783	1784	1785	1786	1787	1788	1789	1790	1791	1792	1793	1794	1795	1796	1797	1798	1799	1800	1801	1802	1806	1803	1804	1805	1807	1808	1809	1810	1811	1812	1813	1814	1815	1816	1817	1818	1819	1820	1821	1822	1823	1824	1825	1826	1827	1828	1829	1830	1831	1832	1833	1834	1835	1836	1837	1838	1839	1840	1841	1842	1844	1843	1845	1846	1847	1848	1850	1849	1851	1852	1857	1858	1863	1859	1860	1862	1861	1853	1854	1856	1855	1864	1865	1867	1866	1868	1869	1870	1871	1872	1873	1874	1876	1875	1881	1882	1884	1883	1885	1887	1886	1877	1878	1880	1879	1888	1889	1891	1890	1892	1893	1894	1895	1896	1898	1897	1900	1899	1901	1902	1903	1904	1905	1906	1908	1907	1909	1910	1911	1912	1913	1914	1915	1916	1917	1918	</DataArray>