<?xml version="1.0"?>
<VTKFile type="UnstructuredGrid" version="0.1" byte_order="BigEndian">
<UnstructuredGrid GhostLevel="0">
<Piece NumberOfPoints="4688" NumberOfCells="1932" ><Points>
<DataArray type="Float32" NumberOfComponents="3" format="ascii">
701000	6.204e+06	50	701000	6.203e+06	50	702000	6.204e+06	50	702000	6.203e+06	50	701000	6.204e+06	-50	701000	6.203e+06	-50	702000	6.204e+06	-50	702000	6.203e+06	-50	703000	6.204e+06	50	703000	6.203e+06	50	703000	6.204e+06	-50	703000	6.203e+06	-50	704000	6.204e+06	50	704000	6.203e+06	50	704000	6.204e+06	-50	704000	6.203e+06	-50	705000	6.204e+06	50	705000	6.203e+06	50	705000	6.204e+06	-50	705000	6.203e+06	-50	701000	6.202e+06	50	702000	6.202e+06	50	701000	6.202e+06	-50	702000	6.202e+06	-50	703000	6.202e+06	50	703000	6.202e+06	-50	704000	6.202e+06	50	704000	6.202e+06	-50	705000	6.202e+06	50	705000	6.202e+06	-50	701000	6.201e+06	50	702000	6.201e+06	50	701000	6.201e+06	-50	702000	6.201e+06	-50	703000	6.201e+06	50	703000	6.201e+06	-50	704000	6.201e+06	50	704000	6.201e+06	-50	705000	6.201e+06	50	705000	6.201e+06	-50	702000	6.2e+06	50	703000	6.2e+06	50	702000	6.2e+06	-50	703000	6.2e+06	-50	704000	6.2e+06	50	704000	6.2e+06	-50	705000	6.2e+06	50	705000	6.2e+06	-50	700000	6.2e+06	50	700000	6.199e+06	50	701000	6.2e+06	50	701000	6.199e+06	50	700000	6.2e+06	-50	700000	6.199e+06	-50	701000	6.2e+06	-50	701000	6.199e+06	-50	702000	6.199e+06	50	702000	6.199e+06	-50	703000	6.199e+06	50	703000	6.199e+06	-50	704000	6.199e+06	50	704000	6.199e+06	-50	705000	6.199e+06	50	705000	6.199e+06	-50	700000	6.198e+06	50	701000	6.198e+06	50	700000	6.198e+06	-50	701000	6.198e+06	-50	702000	6.198e+06	50	702000	6.198e+06	-50	703000	6.198e+06	50	703000	6.198e+06	-50	704000	6.198e+06	50	704000	6.198e+06	-50	705000	6.198e+06	50	705000	6.198e+06	-50	699000	6.198e+06	50	699000	6.197e+06	50	700000	6.197e+06	50	699000	6.198e+06	-50	699000	6.197e+06	-50	700000	6.197e+06	-50	701000	6.197e+06	50	701000	6.197e+06	-50	702000	6.197e+06	50	702000	6.197e+06	-50	703000	6.197e+06	50	703000	6.197e+06	-50	704000	6.197e+06	50	704000	6.197e+06	-50	705000	6.197e+06	50	705000	6.197e+06	-50	698000	6.197e+06	50	698000	6.196e+06	50	699000	6.196e+06	50	698000	6.197e+06	-50	698000	6.196e+06	-50	699000	6.196e+06	-50	700000	6.196e+06	50	700000	6.196e+06	-50	701000	6.196e+06	50	701000	6.196e+06	-50	702000	6.196e+06	50	702000	6.196e+06	-50	703000	6.196e+06	50	703000	6.196e+06	-50	704000	6.196e+06	50	704000	6.196e+06	-50	705000	6.196e+06	50	705000	6.196e+06	-50	695000	6.196e+06	50	695000	6.195e+06	50	696000	6.196e+06	50	696000	6.195e+06	50	695000	6.196e+06	-50	695000	6.195e+06	-50	696000	6.196e+06	-50	696000	6.195e+06	-50	697000	6.196e+06	50	697000	6.195e+06	50	697000	6.196e+06	-50	697000	6.195e+06	-50	698000	6.195e+06	50	698000	6.195e+06	-50	699000	6.195e+06	50	699000	6.195e+06	-50	700000	6.195e+06	50	700000	6.195e+06	-50	701000	6.195e+06	50	701000	6.195e+06	-50	702000	6.195e+06	50	702000	6.195e+06	-50	703000	6.195e+06	50	703000	6.195e+06	-50	704000	6.195e+06	50	704000	6.195e+06	-50	693000	6.195e+06	50	693000	6.194e+06	50	694000	6.195e+06	50	694000	6.194e+06	50	693000	6.195e+06	-50	693000	6.194e+06	-50	694000	6.195e+06	-50	694000	6.194e+06	-50	695000	6.194e+06	50	695000	6.194e+06	-50	696000	6.194e+06	50	696000	6.194e+06	-50	697000	6.194e+06	50	697000	6.194e+06	-50	698000	6.194e+06	50	698000	6.194e+06	-50	699000	6.194e+06	50	700000	6.194e+06	50	699000	6.194e+06	-50	700000	6.194e+06	-50	701000	6.194e+06	50	701000	6.194e+06	-50	702000	6.194e+06	50	702000	6.194e+06	-50	703000	6.194e+06	50	703000	6.194e+06	-50	704000	6.194e+06	50	704000	6.194e+06	-50	693000	6.193e+06	50	694000	6.193e+06	50	693000	6.193e+06	-50	694000	6.193e+06	-50	695000	6.193e+06	50	695000	6.193e+06	-50	696000	6.193e+06	50	696000	6.193e+06	-50	697000	6.193e+06	50	697000	6.193e+06	-50	700000	6.193e+06	50	701000	6.193e+06	50	700000	6.193e+06	-50	701000	6.193e+06	-50	702000	6.193e+06	50	702000	6.193e+06	-50	703000	6.193e+06	50	703000	6.193e+06	-50	704000	6.193e+06	50	704000	6.193e+06	-50	691000	6.193e+06	50	691000	6.192e+06	50	692000	6.193e+06	50	692000	6.192e+06	50	691000	6.193e+06	-50	691000	6.192e+06	-50	692000	6.193e+06	-50	692000	6.192e+06	-50	693000	6.192e+06	50	693000	6.192e+06	-50	694000	6.192e+06	50	694000	6.192e+06	-50	695000	6.192e+06	50	695000	6.192e+06	-50	696000	6.192e+06	50	696000	6.192e+06	-50	697000	6.192e+06	50	697000	6.192e+06	-50	698000	6.193e+06	50	698000	6.192e+06	50	698000	6.193e+06	-50	698000	6.192e+06	-50	699000	6.193e+06	50	699000	6.192e+06	50	700000	6.192e+06	50	699000	6.193e+06	-50	699000	6.192e+06	-50	700000	6.192e+06	-50	701000	6.192e+06	50	701000	6.192e+06	-50	702000	6.192e+06	50	702000	6.192e+06	-50	703000	6.192e+06	50	703000	6.192e+06	-50	704000	6.192e+06	50	704000	6.192e+06	-50	691000	6.191e+06	50	692000	6.191e+06	50	691000	6.191e+06	-50	692000	6.191e+06	-50	693000	6.191e+06	50	693000	6.191e+06	-50	694000	6.191e+06	50	694000	6.191e+06	-50	695000	6.191e+06	50	695000	6.191e+06	-50	696000	6.191e+06	50	696000	6.191e+06	-50	697000	6.191e+06	50	697000	6.191e+06	-50	698000	6.191e+06	50	698000	6.191e+06	-50	699000	6.191e+06	50	699000	6.191e+06	-50	700000	6.191e+06	50	700000	6.191e+06	-50	701000	6.191e+06	50	701000	6.191e+06	-50	702000	6.191e+06	50	702000	6.191e+06	-50	703000	6.191e+06	50	703000	6.191e+06	-50	704000	6.191e+06	50	704000	6.191e+06	-50	686000	6.191e+06	50	686000	6.19e+06	50	687000	6.191e+06	50	687000	6.19e+06	50	686000	6.191e+06	-50	686000	6.19e+06	-50	687000	6.191e+06	-50	687000	6.19e+06	-50	688000	6.191e+06	50	688000	6.19e+06	50	688000	6.191e+06	-50	688000	6.19e+06	-50	689000	6.191e+06	50	689000	6.19e+06	50	689000	6.191e+06	-50	689000	6.19e+06	-50	690000	6.191e+06	50	690000	6.19e+06	50	690000	6.191e+06	-50	690000	6.19e+06	-50	691000	6.19e+06	50	691000	6.19e+06	-50	692000	6.19e+06	50	692000	6.19e+06	-50	693000	6.19e+06	50	693000	6.19e+06	-50	694000	6.19e+06	50	694000	6.19e+06	-50	695000	6.19e+06	50	695000	6.19e+06	-50	696000	6.19e+06	50	696000	6.19e+06	-50	697000	6.19e+06	50	697000	6.19e+06	-50	698000	6.19e+06	50	698000	6.19e+06	-50	699000	6.19e+06	50	699000	6.19e+06	-50	700000	6.19e+06	50	700000	6.19e+06	-50	701000	6.19e+06	50	701000	6.19e+06	-50	702000	6.19e+06	50	702000	6.19e+06	-50	703000	6.19e+06	50	703000	6.19e+06	-50	704000	6.19e+06	50	704000	6.19e+06	-50	686000	6.189e+06	50	687000	6.189e+06	50	686000	6.189e+06	-50	687000	6.189e+06	-50	688000	6.189e+06	50	688000	6.189e+06	-50	689000	6.189e+06	50	689000	6.189e+06	-50	690000	6.189e+06	50	690000	6.189e+06	-50	691000	6.189e+06	50	691000	6.189e+06	-50	692000	6.189e+06	50	692000	6.189e+06	-50	693000	6.189e+06	50	693000	6.189e+06	-50	694000	6.189e+06	50	694000	6.189e+06	-50	695000	6.189e+06	50	695000	6.189e+06	-50	696000	6.189e+06	50	696000	6.189e+06	-50	697000	6.189e+06	50	697000	6.189e+06	-50	698000	6.189e+06	50	698000	6.189e+06	-50	699000	6.189e+06	50	699000	6.189e+06	-50	700000	6.189e+06	50	700000	6.189e+06	-50	701000	6.189e+06	50	701000	6.189e+06	-50	702000	6.189e+06	50	702000	6.189e+06	-50	703000	6.189e+06	50	703000	6.189e+06	-50	704000	6.189e+06	50	704000	6.189e+06	-50	688000	6.188e+06	50	689000	6.188e+06	50	688000	6.188e+06	-50	689000	6.188e+06	-50	690000	6.188e+06	50	690000	6.188e+06	-50	691000	6.188e+06	50	691000	6.188e+06	-50	692000	6.188e+06	50	692000	6.188e+06	-50	693000	6.188e+06	50	693000	6.188e+06	-50	694000	6.188e+06	50	694000	6.188e+06	-50	695000	6.188e+06	50	695000	6.188e+06	-50	696000	6.188e+06	50	696000	6.188e+06	-50	697000	6.188e+06	50	697000	6.188e+06	-50	698000	6.188e+06	50	698000	6.188e+06	-50	699000	6.188e+06	50	699000	6.188e+06	-50	700000	6.188e+06	50	700000	6.188e+06	-50	701000	6.188e+06	50	701000	6.188e+06	-50	702000	6.188e+06	50	702000	6.188e+06	-50	703000	6.188e+06	50	703000	6.188e+06	-50	704000	6.188e+06	50	704000	6.188e+06	-50	688000	6.187e+06	50	689000	6.187e+06	50	688000	6.187e+06	-50	689000	6.187e+06	-50	690000	6.187e+06	50	690000	6.187e+06	-50	691000	6.187e+06	50	691000	6.187e+06	-50	692000	6.187e+06	50	692000	6.187e+06	-50	693000	6.187e+06	50	693000	6.187e+06	-50	694000	6.187e+06	50	694000	6.187e+06	-50	695000	6.187e+06	50	695000	6.187e+06	-50	696000	6.187e+06	50	696000	6.187e+06	-50	697000	6.187e+06	50	697000	6.187e+06	-50	698000	6.187e+06	50	698000	6.187e+06	-50	699000	6.187e+06	50	699000	6.187e+06	-50	700000	6.187e+06	50	700000	6.187e+06	-50	701000	6.187e+06	50	701000	6.187e+06	-50	702000	6.187e+06	50	702000	6.187e+06	-50	703000	6.187e+06	50	703000	6.187e+06	-50	704000	6.187e+06	50	704000	6.187e+06	-50	685000	6.187e+06	50	685000	6.186e+06	50	686000	6.187e+06	50	686000	6.186e+06	50	685000	6.187e+06	-50	685000	6.186e+06	-50	686000	6.187e+06	-50	686000	6.186e+06	-50	687000	6.187e+06	50	687000	6.186e+06	50	687000	6.187e+06	-50	687000	6.186e+06	-50	688000	6.186e+06	50	689000	6.186e+06	50	688000	6.186e+06	-50	689000	6.186e+06	-50	690000	6.186e+06	50	690000	6.186e+06	-50	691000	6.186e+06	50	691000	6.186e+06	-50	692000	6.186e+06	50	692000	6.186e+06	-50	693000	6.186e+06	50	693000	6.186e+06	-50	694000	6.186e+06	50	694000	6.186e+06	-50	695000	6.186e+06	50	695000	6.186e+06	-50	696000	6.186e+06	50	696000	6.186e+06	-50	697000	6.186e+06	50	697000	6.186e+06	-50	698000	6.186e+06	50	698000	6.186e+06	-50	699000	6.186e+06	50	699000	6.186e+06	-50	700000	6.186e+06	50	700000	6.186e+06	-50	701000	6.186e+06	50	701000	6.186e+06	-50	702000	6.186e+06	50	702000	6.186e+06	-50	703000	6.186e+06	50	703000	6.186e+06	-50	704000	6.186e+06	50	704000	6.186e+06	-50	685000	6.185e+06	50	686000	6.185e+06	50	685000	6.185e+06	-50	686000	6.185e+06	-50	687000	6.185e+06	50	687000	6.185e+06	-50	688000	6.185e+06	50	688000	6.185e+06	-50	689000	6.185e+06	50	689000	6.185e+06	-50	690000	6.185e+06	50	690000	6.185e+06	-50	691000	6.185e+06	50	691000	6.185e+06	-50	692000	6.185e+06	50	692000	6.185e+06	-50	693000	6.185e+06	50	693000	6.185e+06	-50	694000	6.185e+06	50	694000	6.185e+06	-50	695000	6.185e+06	50	695000	6.185e+06	-50	696000	6.185e+06	50	696000	6.185e+06	-50	697000	6.185e+06	50	697000	6.185e+06	-50	698000	6.185e+06	50	698000	6.185e+06	-50	699000	6.185e+06	50	699000	6.185e+06	-50	703000	6.18
[...]
<CellData Scalars="scalars">
<DataArray type="Int32" Name="nodeid" format="ascii">92	93	94	95	142	143	144	145	192	193	194	195	243	244	245	291	292	293	294	295	341	342	343	344	345	390	391	392	393	394	395	439	440	441	442	443	444	445	486	487	488	489	490	491	492	493	494	534	535	536	537	538	2787	2788	2790	2789	540	541	542	543	544	584	585	586	587	2795	2796	2798	2797	2803	2804	2807	2808	2810	2809	2805	2811	2812	2814	2813	2802	2815	2816	2818	2817	2819	2820	2822	2821	591	592	593	594	632	633	634	635	636	637	638	2847	2848	2850	2849	640	641	642	643	644	682	683	684	685	686	687	688	689	690	691	692	693	694	727	728	729	730	731	732	733	734	735	736	737	738	739	740	741	742	743	744	777	778	779	780	781	782	783	784	785	786	787	788	789	790	791	792	793	794	2934	2935	2936	2938	2937	829	830	831	832	833	834	835	836	837	838	839	840	841	842	843	844	2967	2971	2972	2974	2973	2970	2969	2979	2980	2982	2983	2984	2986	2985	2976	2978	2987	2988	2990	2989	879	880	881	882	883	884	885	886	887	888	889	890	891	892	893	894	926	927	2999	3000	3002	3001	929	930	931	932	933	934	935	936	937	938	939	940	941	942	943	944	976	977	978	979	980	981	982	983	984	985	986	987	988	989	3027	3028	3030	3029	3031	3032	3039	3040	3042	3043	3044	3046	3045	3035	3036	3038	3037	3047	3048	3050	3049	3051	3052	3054	3053	994	1024	1025	1026	1027	1028	1029	1030	1031	1032	1033	1034	1035	1036	1037	1038	1039	1040	3063	3067	3068	3070	3069	3066	3065	3071	3072	3074	3073	3075	3079	3080	3082	3081	3091	3092	3094	3093	3088	3090	3089	3083	3084	3086	3085	3095	3097	1072	1073	1074	1075	1076	1077	1078	1079	1080	1081	1082	1083	1084	1085	1086	1087	1088	1089	1090	1091	1092	3123	3124	3126	3125	1094	1123	1124	1125	1126	1127	1128	1129	1130	1131	1132	1133	1134	1135	1136	1137	1138	1139	1140	1141	1142	1143	1144	1170	1171	1172	1173	1174	1175	1176	1177	1178	1179	1180	1181	1182	1183	1184	1185	1186	1187	1188	1189	1190	1191	1192	1193	1194	1218	1219	1220	1221	1222	1223	1224	1225	1226	1227	1228	1229	1230	1231	1232	1233	1234	3139	3140	3142	3141	3143	3144	3146	3145	1237	1238	1239	1240	3147	3148	3150	3149	3151	3152	3154	3153	1243	3155	3157	1264	3162	3161	3164	3166	3165	1267	1268	1269	1270	1271	1272	1273	1274	1275	1276	1277	1278	1279	1280	1281	3167	3168	3170	3169	3171	3172	3174	3173	3175	3176	3183	3184	3186	3185	3179	3180	3182	3181	3187	3191	3192	3194	3193	3199	3200	3202	3201	3195	3196	3198	3197	3207	3208	3210	3209	3211	3212	3214	3213	3215	3216	3218	3217	3205	3219	3220	3227	3228	3230	3229	3223	3224	3226	3225	3231	3232	3239	3240	3242	3241	3235	3236	3238	3237	3243	3244	3251	3252	3254	3253	3247	3248	3250	3249	3255	3256	3263	3264	3266	3265	3259	3260	3262	3261	3267	3271	3272	3274	3273	3279	3280	3282	3281	3275	3276	3278	3277	3287	3288	3290	3289	3284	3295	3296	3298	3297	3291	3292	3294	3293	3299	3300	3303	3304	3306	3305	3301	3311	3312	3314	3313	3315	3316	3318	3317	1312	3320	3322	3321	3323	3324	3326	3327	3328	3330	3329	3331	3335	3336	3338	3337	3334	3333	3343	3344	3346	3347	3348	3350	3349	3340	3342	3351	3352	3354	3353	1317	1318	1319	1320	1321	1322	1323	1324	1325	1326	1327	3355	3356	3358	3357	3359	3360	3362	3361	3363	3364	3366	3365	3367	3368	3375	3376	3378	3377	3371	3372	3374	3373	3379	3383	3384	3386	3385	3391	3392	3394	3393	3387	3388	3390	3389	3399	3400	3402	3401	3403	3404	3406	3405	3398	3397	3411	3412	3414	3413	3408	3410	3409	3415	3416	3418	3417	3419	3420	3422	3421	3423	3424	3426	3425	3427	3428	3430	3429	3431	3432	3434	3433	3435	3439	3440	3442	3441	3438	3437	3447	3448	3450	3449	3444	3446	3445	3451	3455	3456	3458	3457	3454	3453	3463	3464	3466	3465	3467	3468	3470	3469	3462	3461	3471	3473	3478	3483	3484	3486	3485	3481	3487	3488	3495	3496	3498	3497	3491	3492	3494	3493	3503	3504	3506	3505	3507	3508	3510	3509	3502	3511	3512	3514	3513	3519	3520	3522	3521	3523	3524	3526	3525	3535	3536	3538	3537	3527	3531	3532	3534	3533	3530	3529	3543	3544	3546	3545	3547	3548	3550	3549	3551	3552	3554	3553	3541	3559	3560	3562	3561	3556	3567	3568	3570	3569	3563	3564	3566	3565	3571	3572	3579	3580	3582	3581	3575	3576	3578	3577	3583	3584	3586	3585	3587	3588	3590	3589	1370	1371	1372	1373	1374	3591	3592	3594	3593	3595	3596	3598	3597	3599	3600	3607	3608	3610	3609	3603	3604	3606	3605	3611	3615	3616	3618	3617	3623	3624	3626	3625	3619	3620	3622	3621	3631	3632	3634	3633	3635	3636	3638	3637	3630	3629	3643	3644	3646	3645	3647	3648	3650	3649	3642	3641	3655	3656	3658	3657	3652	3654	3653	3659	3660	3662	3661	1383	1384	1385	1386	1387	1388	1389	1390	1391	1392	1393	1394	1409	3663	3667	3668	3670	3669	3671	3672	3674	3673	3665	3679	3680	3682	3681	3683	3684	3686	3685	3678	3677	3687	3688	3690	3689	3691	3692	3694	3693	3695	3696	3698	3697	3699	3700	3702	3701	3703	3704	3706	3705	3707	3711	3712	3714	3713	3710	3709	3719	3720	3722	3721	3723	3724	3726	3725	3718	3717	3731	3732	3734	3733	3728	3739	3740	3742	3741	3735	3736	3738	3737	3743	3744	3751	3752	3754	3753	3747	3748	3750	3749	3755	3756	3763	3764	3766	3765	3759	3760	3762	3761	3767	3768	3770	3771	3772	3774	3773	3775	3776	3783	3784	3786	3785	3779	3780	3782	3781	3787	3788	3795	3796	3798	3797	3791	3792	3794	3793	3803	3804	3806	3805	3807	3808	3810	3809	3802	3811	3812	3814	3813	3819	3820	3822	3821	3823	3824	3826	3825	3818	3817	3831	3832	3834	3833	3828	3830	3829	3835	3836	3838	3837	1429	1430	1431	1432	1433	1434	1435	1436	1437	1438	1439	1440	1441	1442	1443	1444	3840	3843	3844	3846	3845	3847	3848	3855	3856	3858	3857	3851	3852	3854	3853	3863	3864	3866	3865	3867	3868	3870	3869	3862	3871	3872	3874	3873	3875	3876	3878	3877	1462	1463	1464	1465	1466	1467	1468	3879	3880	3882	3881	3883	3884	3886	3885	3887	3888	3890	3889	3895	3896	3898	3897	3899	3900	3902	3901	3894	3893	3907	3908	3910	3909	3904	3906	3905	3911	3912	3914	3913	3915	3916	3918	3917	1476	3919	3920	3923	3924	3926	3925	3921	3931	3932	3934	3933	3928	3930	3939	3940	3942	3941	3936	3938	3937	1479	1480	1481	1482	1483	1484	1485	1486	1487	1488	1489	1490	1491	1492	1493	3954	3953	3960	3962	3961	3963	3964	3966	3965	3958	3967	3968	3970	3969	3971	3972	3974	3973	3975	3976	3978	3977	3983	3984	3986	3985	3987	3988	3990	3991	3992	3994	3993	3995	3996	3998	3997	3981	3999	4000	4002	4001	1513	1514	1515	1516	1517	1518	1519	1520	1521	1522	1523	4003	4007	4008	4010	4009	4011	4015	4016	4018	4017	4014	4013	4005	4019	4020	4022	4023	4024	4026	4025	1526	4027	4028	4030	4029	4031	4032	4034	4033	1529	1530	1531	1532	1533	4035	4036	4038	4037	1535	1536	1537	1538	1539	1540	1541	1542	1543	4074	4075	4076	4078	4077	4065	4086	4085	4090	4089	4082	4091	4092	4094	4093	4100	4102	4101	4103	4104	4106	4105	4098	4097	4111	4112	4114	4113	4108	4110	4109	1559	1560	4115	4116	4118	4117	1562	1563	1564	1565	1566	1567	1568	1569	1570	1571	1572	1573	4119	4120	4122	4121	4123	4124	4126	4125	1576	4127	4128	4130	4129	1578	1579	1580	1581	1582	4131	4132	4134	4133	4139	4140	4142	4141	4136	4151	4152	4154	4153	4143	4147	4148	4150	4149	4146	4145	4155	4156	4158	4157	1586	1587	1588	1589	1590	1591	1592	1593	4171	4172	4174	4173	4175	4176	4178	4177	1607	1608	1609	1610	1611	1612	1615	1616	1617	4183	4184	4187	4188	4190	4189	4185	4191	4192	4194	4195	4196	4198	4199	4200	4202	4201	1620	1621	1622	1623	1624	1625	4203	4204	4206	4205	4207	4211	4212	4214	4213	4223	4224	4226	4225	4220	4222	4221	4215	4216	4218	4217	4227	4228	4230	4229	1629	1630	1631	1632	1633	4231	4232	4234	4233	1635	1636	1637	1638	1639	1640	1641	1642	1643	1666	1667	4263	4264	4266	4265	4271	4272	4274	4273	4268	4270	4269	1670	1671	1672	1673	1674	1675	1676	4275	4276	4278	4277	1678	1679	1680	1681	1682	1683	1684	1685	1686	1687	1688	1689	1690	1691	1692	1693	1694	1718	1719	1720	1721	1722	1723	1724	1725	1726	1727	1728	1729	1730	1731	1732	1733	1734	1735	1736	1737	1738	1739	1740	1741	1742	1743	1744	1769	1770	1771	1772	1773	1774	1775	1776	1777	1778	1779	1780	1781	1782	1783	1784	1785	1786	1787	1788	1789	1790	1791	1792	1793	1794	1819	1820	1821	1822	1823	1824	1825	1826	1827	1828	1829	1830	1831	1832	1833	1834	1835	1836	1837	1838	1839	1840	1841	1842	1843	1844	1869	1870	1871	1872	1873	1874	1875	1876	1877	1878	1879	1880	1881	1882	1883	1884	1885	1886	1887	1888	1889	1890	1891	1892	1893	1894	1919	1920	1921	1922	1923	1924	1925	1926	1927	1928	1929	1930	1931	1932	1933	1934	1935	1936	1937	1938	1939	1940	1941	1942	1943	1944	1968	1969	1970	1971	1972	1973	1974	1975	4355	4356	4359	4360	4362	4361	4357	4363	4364	4366	4365	1978	1979	1980	1981	1982	1983	1984	1985	1986	1987	1988	1989	1990	1991	1992	1993	1994	2019	2020	2021	2022	2023	2024	4367	4368	4370	4369	4375	4376	4378	4377	4383	4384	4386	4385	4380	4382	4381	4374	4373	4387	4388	4390	4389	2028	2029	2030	2031	2032	2033	2034	2035	2036	2037	2038	2039	2040	2041	2042	2043	2044	2069	2070	2071	2072	2073	2074	2075	2076	2077	2078	2079	2080	2081	2082	2083	2084	2085	2086	2087	2088	2089	2090	2091	2092	2093	2094	2120	2121	2122	2123	2124	2125	2126	2127	2128	2129	2130	2131	2132	2133	2134	2135	2136	2137	2138	2139	2140	2141	2142	2143	2144	2171	2172	2173	2174	2175	2176	2177	2178	2179	2180	2181	2182	2183	2184	2185	2186	2187	2188	2189	2190	2191	2192	2193	2194	2195	2221	2222	2223	2224	2225	2226	2227	2228	2229	2230	2231	2232	2233	2234	2235	2236	2237	2238	2239	2240	2241	2242	2243	2244	2245	2271	2272	2273	2274	2275	2276	2277	2278	2279	2280	2281	2282	2283	2284	2285	2286	2287	2288	2289	2290	2291	2292	2293	2294	2295	2320	2321	2322	2323	2324	2325	2326	2327	2328	2330	2331	2332	2333	2334	2335	2336	4427	4428	4430	4429	2338	2339	2370	2371	2372	2373	2374	2375	2376	2382	2383	2384	2385	4431	4432	4435	4436	4433	4443	2418	2419	2420	2421	2422	2423	4455	4456	4458	4457	2425	2468	2469	2470	2471	2472	4475	4476	4478	4477	4483	4484	4486	4485	4480	4495	4496	4498	4497	4487	4491	4492	4494	4493	4490	4489	4499	4500	4501	2519	2520	2521	2522	2523	4559	4560	4562	4561	2525	2570	2571	2572	2573	2574	</DataArray>
<DataArray type="Int32" Name="nodenumber" format="ascii">1	2	3	4	5	6	7	8	9	10	11	12	13	14	15	16	17	18	19	20	21	22	23	24	25	26	27	28	29	30	31	32	33	34	35	36	37	38	39	40	41	42	43	44	45	46	47	48	49	50	51	52	53	54	56	55	57	58	59	60	61	62	63	64	65	66	67	69	68	70	71	73	74	76	75	72	77	78	80	79	85	81	82	84	83	86	87	89	88	90	91	92	93	94	95	96	97	98	99	100	101	102	104	103	105	106	107	108	109	110	111	112	113	114	115	116	117	118	119	120	121	122	123	124	125	126	127	128	129	130	131	132	133	134	135	136	137	138	139	140	141	142	143	144	145	146	147	148	149	150	151	152	153	154	155	156	157	158	159	160	161	163	162	164	165	166	167	168	169	170	171	172	173	174	175	176	177	178	179	180	181	182	184	183	186	185	187	188	193	189	190	192	191	194	199	195	196	198	197	200	201	202	203	204	205	206	207	208	209	210	211	212	213	214	215	216	217	218	219	221	220	222	223	224	225	226	227	228	229	230	231	232	233	234	235	236	237	238	239	240	241	242	243	244	245	246	247	248	249	250	251	252	253	255	254	256	257	262	263	268	264	265	267	266	258	259	261	260	269	270	272	271	273	274	276	275	277	278	279	280	281	282	283	284	285	286	287	288	289	290	291	292	293	294	295	296	297	299	298	301	300	302	303	305	304	306	307	308	310	309	315	316	318	317	319	321	320	311	312	314	313	322	323	324	325	326	327	328	329	330	331	332	333	334	335	336	337	338	339	340	341	342	343	344	345	346	348	347	349	350	351	352	353	354	355	356	357	358	359	360	361	362	363	364	365	366	367	368	369	370	371	372	373	374	375	376	377	378	379	380	381	382	383	384	385	386	387	388	389	390	391	392	393	394	395	396	397	398	399	400	401	402	403	404	405	406	407	408	409	410	411	412	413	414	415	417	416	418	419	421	420	422	423	424	425	426	427	429	428	430	431	433	432	434	435	436	437	439	438	440	442	441	443	444	445	446	447	448	449	450	451	452	453	454	455	456	457	458	459	461	460	462	463	465	464	466	467	472	473	475	474	468	469	471	470	476	477	478	480	479	485	486	488	487	481	482	484	483	489	490	492	491	493	494	496	495	498	499	501	500	497	502	503	508	509	511	510	504	505	507	506	512	513	518	519	521	520	514	515	517	516	522	523	528	529	531	530	524	525	527	526	532	533	538	539	541	540	534	535	537	536	542	543	544	546	545	551	552	554	553	547	548	550	549	555	556	558	557	559	564	565	567	566	560	561	563	562	568	569	571	572	574	573	570	575	576	578	577	579	580	582	581	583	584	586	585	587	588	593	589	590	592	591	594	595	596	598	597	600	599	601	602	607	603	604	606	605	608	613	609	610	612	611	614	615	616	617	618	619	620	621	622	623	624	625	626	628	627	629	630	632	631	633	634	636	635	637	638	643	644	646	645	639	640	642	641	647	648	649	651	650	656	657	659	658	652	653	655	654	660	661	663	662	664	665	667	666	669	668	670	671	673	672	674	676	675	677	678	680	679	681	682	684	683	685	686	688	687	689	690	692	691	693	694	696	695	697	698	699	701	700	703	702	704	705	707	706	708	710	709	711	712	713	715	714	717	716	718	719	721	720	722	723	725	724	727	726	728	729	730	732	733	735	734	731	736	737	742	743	745	744	738	739	741	740	746	747	749	748	750	751	753	752	758	754	755	757	756	759	760	762	761	763	764	766	765	774	775	777	776	767	768	769	771	770	773	772	778	779	781	780	782	783	785	784	787	788	790	789	786	791	792	794	793	795	800	801	803	802	796	797	799	798	804	805	810	811	813	812	806	807	809	808	814	815	817	816	818	819	821	820	822	823	824	825	826	827	828	830	829	831	832	834	833	835	836	841	842	844	843	837	838	840	839	845	846	847	849	848	854	855	857	856	850	851	853	852	858	859	861	860	862	863	865	864	867	866	868	869	871	870	872	873	875	874	877	876	878	879	881	880	882	884	883	885	886	888	887	889	890	891	892	893	894	895	896	897	898	899	900	901	902	903	904	906	905	908	909	911	910	907	912	913	915	914	916	917	919	918	921	920	922	923	925	924	926	927	929	928	930	931	933	932	934	935	937	936	938	939	941	940	942	943	944	946	945	948	947	949	950	952	951	953	954	956	955	958	957	959	960	962	961	963	968	969	971	970	964	965	967	966	972	973	978	979	981	980	974	975	977	976	982	983	988	989	991	990	984	985	987	986	992	993	998	994	995	997	996	999	1000	1005	1006	1008	1007	1001	1002	1004	1003	1009	1010	1015	1016	1018	1017	1011	1012	1014	1013	1019	1020	1022	1021	1023	1024	1026	1025	1031	1027	1028	1030	1029	1032	1033	1035	1034	1036	1037	1039	1038	1041	1040	1042	1043	1045	1044	1046	1048	1047	1049	1050	1052	1051	1053	1054	1055	1056	1057	1058	1059	1060	1061	1062	1063	1064	1065	1066	1067	1068	1069	1070	1071	1073	1072	1074	1075	1080	1081	1083	1082	1076	1077	1079	1078	1084	1085	1087	1086	1088	1089	1091	1090	1096	1092	1093	1095	1094	1097	1098	1100	1099	1101	1102	1103	1104	1105	1106	1107	1108	1109	1111	1110	1112	1113	1115	1114	1116	1117	1119	1118	1120	1121	1123	1122	1124	1125	1127	1126	1129	1128	1130	1131	1133	1132	1134	1136	1135	1137	1138	1140	1139	1141	1142	1144	1143	1145	1146	1147	1149	1150	1152	1151	1148	1153	1154	1156	1155	1157	1165	1158	1159	1161	1160	1162	1164	1163	1166	1167	1168	1169	1170	1171	1172	1173	1174	1175	1176	1177	1178	1179	1180	1182	1181	1183	1185	1184	1186	1187	1189	1188	1194	1190	1191	1193	1192	1195	1196	1198	1197	1199	1200	1202	1201	1203	1204	1206	1205	1207	1208	1213	1209	1210	1212	1211	1215	1216	1218	1217	1214	1219	1220	1222	1221	1223	1224	1225	1226	1227	1228	1229	1230	1231	1232	1233	1234	1235	1236	1238	1237	1240	1241	1242	1244	1243	1246	1245	1239	1247	1248	1253	1249	1250	1252	1251	1254	1255	1256	1258	1257	1259	1260	1262	1261	1263	1264	1265	1266	1267	1268	1269	1271	1270	1272	1273	1274	1275	1276	1277	1278	1279	1280	1281	1283	1284	1286	1285	1282	1288	1287	1290	1289	1295	1291	1292	1294	1293	1296	1298	1297	1299	1300	1302	1301	1304	1303	1305	1306	1308	1307	1309	1311	1310	1312	1313	1314	1315	1317	1316	1318	1319	1320	1321	1322	1323	1324	1325	1326	1327	1328	1329	1330	1331	1333	1332	1334	1335	1337	1336	1338	1339	1340	1342	1341	1343	1344	1345	1346	1347	1348	1349	1351	1350	1352	1353	1355	1354	1356	1364	1365	1367	1366	1357	1358	1359	1361	1360	1363	1362	1368	1369	1371	1370	1372	1373	1374	1375	1376	1377	1378	1379	1380	1381	1383	1382	1384	1385	1387	1386	1388	1389	1390	1391	1392	1393	1394	1395	1396	1397	1398	1400	1401	1403	1402	1399	1404	1405	1413	1406	1407	1412	1408	1409	1411	1410	1414	1415	1416	1417	1418	1419	1420	1421	1423	1422	1424	1425	1426	1428	1427	1433	1434	1436	1435	1437	1439	1438	1429	1430	1432	1431	1440	1441	1443	1442	1444	1445	1446	1447	1448	1449	1450	1452	1451	1453	1454	1455	1456	1457	1458	1459	1460	1461	1462	1463	1464	1465	1467	1466	1468	1469	1471	1470	1472	1474	1473	1475	1476	1477	1478	1479	1480	1481	1482	1483	1485	1484	1486	1487	1488	1489	1490	1491	1492	1493	1494	1495	1496	1497	1498	1499	1500	1501	1502	1503	1504	1505	1506	1507	1508	1509	1510	1511	1512	1513	1514	1515	1516	1517	1518	1519	1520	1521	1522	1523	1524	1525	1526	1527	1528	1529	1530	1531	1532	1533	1534	1535	1536	1537	1538	1539	1540	1541	1542	1543	1544	1545	1546	1547	1548	1549	1550	1551	1552	1553	1554	1555	1556	1557	1558	1559	1560	1561	1562	1563	1564	1565	1566	1567	1568	1569	1570	1571	1572	1573	1574	1575	1576	1577	1578	1579	1580	1581	1582	1583	1584	1585	1586	1587	1588	1589	1590	1591	1592	1593	1594	1595	1596	1597	1598	1599	1600	1601	1602	1603	1604	1605	1606	1607	1608	1609	1610	1611	1612	1613	1614	1615	1616	1617	1618	1619	1620	1621	1622	1623	1624	1625	1626	1627	1628	1629	1630	1631	1632	1633	1634	1635	1636	1637	1638	1639	1640	1641	1642	1643	1645	1646	1648	1647	1644	1649	1650	1652	1651	1653	1654	1655	1656	1657	1658	1659	1660	1661	1662	1663	1664	1665	1666	1667	1668	1669	1670	1671	1672	1673	1674	1675	1676	1677	1679	1678	1680	1681	1683	1682	1684	1685	1687	1686	1688	1690	1689	1692	1691	1693	1694	1696	1695	1697	1698	1699	1700	1701	1702	1703	1704	1705	1706	1707	1708	1709	1710	1711	1712	1713	1714	1715	1716	1717	1718	1719	1720	1721	1722	1723	1724	1725	1726	1727	1728	1729	1730	1731	1732	1733	1734	1735	1736	1737	1738	1739	1740	1741	1742	1743	1744	1745	1746	1747	1748	1749	1750	1751	1752	1753	1754	1755	1756	1757	1758	1759	1760	1761	1762	1763	1764	1765	1766	1767	1768	1769	1770	1771	1772	1773	1774	1775	1776	1777	1778	1779	1780	1781	1782	1783	1784	1785	1786	1787	1788	1789	1790	1791	1792	1793	1794	1795	1796	1797	1798	1799	1800	1801	1802	1803	1804	1805	1806	1807	1808	1809	1810	1811	1812	1813	1814	1815	1816	1817	1818	1819	1820	1821	1822	1823	1824	1825	1826	1827	1828	1829	1830	1831	1832	1833	1834	1835	1836	1837	1838	1839	1840	1841	1842	1843	1844	1845	1846	1847	1848	1849	1850	1851	1852	1853	1854	1855	1856	1857	1859	1858	1860	1861	1862	1863	1864	1865	1866	1867	1868	1869	1870	1871	1872	1873	1874	1876	1877	1875	1878	1879	1880	1881	1882	1883	1884	1885	1886	1888	1887	1889	1890	1891	1892	1893	1894	1895	1896	1898	1897	1899	1900	1902	1901	1903	1911	1912	1914	1913	1904	1905	1906	1908	1907	1910	1909	1915	1916	1917	1918	1919	1920	1921	1922	1923	1924	1926	1925	1927	1928	1929	1930	1931	1932	</DataArray>