<?xml version="1.0"?>
<VTKFile type="UnstructuredGrid" version="0.1" byte_order="BigEndian">
<UnstructuredGrid GhostLevel="0">
<Piece NumberOfPoints="4486" NumberOfCells="1862" ><Points>
<DataArray type="Float32" NumberOfComponents="3" format="ascii">
701000	6.204e+06	50	701000	6.203e+06	50	702000	6.204e+06	50	702000	6.203e+06	50	701000	6.204e+06	-50	701000	6.203e+06	-50	702000	6.204e+06	-50	702000	6.203e+06	-50	703000	6.204e+06	50	703000	6.203e+06	50	703000	6.204e+06	-50	703000	6.203e+06	-50	704000	6.204e+06	50	704000	6.203e+06	50	704000	6.204e+06	-50	704000	6.203e+06	-50	705000	6.204e+06	50	705000	6.203e+06	50	705000	6.204e+06	-50	705000	6.203e+06	-50	701000	6.202e+06	50	702000	6.202e+06	50	701000	6.202e+06	-50	702000	6.202e+06	-50	703000	6.202e+06	50	703000	6.202e+06	-50	704000	6.202e+06	50	704000	6.202e+06	-50	705000	6.202e+06	50	705000	6.202e+06	-50	701000	6.201e+06	50	702000	6.201e+06	50	701000	6.201e+06	-50	702000	6.201e+06	-50	703000	6.201e+06	50	703000	6.201e+06	-50	704000	6.201e+06	50	704000	6.201e+06	-50	705000	6.201e+06	50	705000	6.201e+06	-50	702000	6.2e+06	50	703000	6.2e+06	50	702000	6.2e+06	-50	703000	6.2e+06	-50	704000	6.2e+06	50	704000	6.2e+06	-50	705000	6.2e+06	50	705000	6.2e+06	-50	700000	6.2e+06	50	700000	6.199e+06	50	701000	6.2e+06	50	701000	6.199e+06	50	700000	6.2e+06	-50	700000	6.199e+06	-50	701000	6.2e+06	-50	701000	6.199e+06	-50	702000	6.199e+06	50	702000	6.199e+06	-50	703000	6.199e+06	50	703000	6.199e+06	-50	704000	6.199e+06	50	704000	6.199e+06	-50	705000	6.199e+06	50	705000	6.199e+06	-50	700000	6.198e+06	50	701000	6.198e+06	50	700000	6.198e+06	-50	701000	6.198e+06	-50	702000	6.198e+06	50	702000	6.198e+06	-50	703000	6.198e+06	50	703000	6.198e+06	-50	699000	6.198e+06	50	699000	6.197e+06	50	700000	6.197e+06	50	699000	6.198e+06	-50	699000	6.197e+06	-50	700000	6.197e+06	-50	701000	6.197e+06	50	701000	6.197e+06	-50	702000	6.197e+06	50	702000	6.197e+06	-50	703000	6.197e+06	50	703000	6.197e+06	-50	698000	6.197e+06	50	698000	6.196e+06	50	699000	6.196e+06	50	698000	6.197e+06	-50	698000	6.196e+06	-50	699000	6.196e+06	-50	700000	6.196e+06	50	700000	6.196e+06	-50	701000	6.196e+06	50	701000	6.196e+06	-50	702000	6.196e+06	50	702000	6.196e+06	-50	703000	6.196e+06	50	703000	6.196e+06	-50	704000	6.197e+06	50	704000	6.196e+06	50	704000	6.197e+06	-50	704000	6.196e+06	-50	695000	6.196e+06	50	695000	6.195e+06	50	696000	6.196e+06	50	696000	6.195e+06	50	695000	6.196e+06	-50	695000	6.195e+06	-50	696000	6.196e+06	-50	696000	6.195e+06	-50	697000	6.196e+06	50	697000	6.195e+06	50	697000	6.196e+06	-50	697000	6.195e+06	-50	698000	6.195e+06	50	698000	6.195e+06	-50	699000	6.195e+06	50	699000	6.195e+06	-50	700000	6.195e+06	50	700000	6.195e+06	-50	701000	6.195e+06	50	701000	6.195e+06	-50	702000	6.195e+06	50	702000	6.195e+06	-50	703000	6.195e+06	50	703000	6.195e+06	-50	704000	6.195e+06	50	704000	6.195e+06	-50	693000	6.195e+06	50	693000	6.194e+06	50	694000	6.195e+06	50	694000	6.194e+06	50	693000	6.195e+06	-50	693000	6.194e+06	-50	694000	6.195e+06	-50	694000	6.194e+06	-50	695000	6.194e+06	50	695000	6.194e+06	-50	696000	6.194e+06	50	696000	6.194e+06	-50	697000	6.194e+06	50	697000	6.194e+06	-50	698000	6.194e+06	50	698000	6.194e+06	-50	699000	6.194e+06	50	699000	6.194e+06	-50	700000	6.194e+06	50	700000	6.194e+06	-50	701000	6.194e+06	50	701000	6.194e+06	-50	702000	6.194e+06	50	702000	6.194e+06	-50	703000	6.194e+06	50	703000	6.194e+06	-50	704000	6.194e+06	50	704000	6.194e+06	-50	693000	6.193e+06	50	694000	6.193e+06	50	693000	6.193e+06	-50	694000	6.193e+06	-50	695000	6.193e+06	50	695000	6.193e+06	-50	696000	6.193e+06	50	696000	6.193e+06	-50	697000	6.193e+06	50	697000	6.193e+06	-50	698000	6.193e+06	50	698000	6.193e+06	-50	699000	6.193e+06	50	699000	6.193e+06	-50	700000	6.193e+06	50	700000	6.193e+06	-50	701000	6.193e+06	50	701000	6.193e+06	-50	702000	6.193e+06	50	702000	6.193e+06	-50	703000	6.193e+06	50	703000	6.193e+06	-50	704000	6.193e+06	50	704000	6.193e+06	-50	691000	6.193e+06	50	691000	6.192e+06	50	692000	6.193e+06	50	692000	6.192e+06	50	691000	6.193e+06	-50	691000	6.192e+06	-50	692000	6.193e+06	-50	692000	6.192e+06	-50	693000	6.192e+06	50	693000	6.192e+06	-50	694000	6.192e+06	50	694000	6.192e+06	-50	695000	6.192e+06	50	695000	6.192e+06	-50	696000	6.192e+06	50	696000	6.192e+06	-50	697000	6.192e+06	50	697000	6.192e+06	-50	698000	6.192e+06	50	698000	6.192e+06	-50	699000	6.192e+06	50	699000	6.192e+06	-50	700000	6.192e+06	50	700000	6.192e+06	-50	701000	6.192e+06	50	701000	6.192e+06	-50	702000	6.192e+06	50	702000	6.192e+06	-50	703000	6.192e+06	50	703000	6.192e+06	-50	704000	6.192e+06	50	704000	6.192e+06	-50	691000	6.191e+06	50	692000	6.191e+06	50	691000	6.191e+06	-50	692000	6.191e+06	-50	693000	6.191e+06	50	693000	6.191e+06	-50	694000	6.191e+06	50	694000	6.191e+06	-50	695000	6.191e+06	50	695000	6.191e+06	-50	696000	6.191e+06	50	696000	6.191e+06	-50	697000	6.191e+06	50	697000	6.191e+06	-50	698000	6.191e+06	50	698000	6.191e+06	-50	699000	6.191e+06	50	699000	6.191e+06	-50	700000	6.191e+06	50	700000	6.191e+06	-50	701000	6.191e+06	50	701000	6.191e+06	-50	702000	6.191e+06	50	702000	6.191e+06	-50	703000	6.191e+06	50	703000	6.191e+06	-50	704000	6.191e+06	50	704000	6.191e+06	-50	686000	6.191e+06	50	686000	6.19e+06	50	687000	6.191e+06	50	687000	6.19e+06	50	686000	6.191e+06	-50	686000	6.19e+06	-50	687000	6.191e+06	-50	687000	6.19e+06	-50	688000	6.191e+06	50	688000	6.19e+06	50	688000	6.191e+06	-50	688000	6.19e+06	-50	689000	6.191e+06	50	689000	6.19e+06	50	689000	6.191e+06	-50	689000	6.19e+06	-50	690000	6.191e+06	50	690000	6.19e+06	50	691000	6.19e+06	50	690000	6.191e+06	-50	690000	6.19e+06	-50	691000	6.19e+06	-50	692000	6.19e+06	50	692000	6.19e+06	-50	693000	6.19e+06	50	693000	6.19e+06	-50	694000	6.19e+06	50	694000	6.19e+06	-50	695000	6.19e+06	50	695000	6.19e+06	-50	696000	6.19e+06	50	696000	6.19e+06	-50	697000	6.19e+06	50	697000	6.19e+06	-50	698000	6.19e+06	50	698000	6.19e+06	-50	699000	6.19e+06	50	699000	6.19e+06	-50	700000	6.19e+06	50	700000	6.19e+06	-50	701000	6.19e+06	50	701000	6.19e+06	-50	702000	6.19e+06	50	702000	6.19e+06	-50	703000	6.19e+06	50	703000	6.19e+06	-50	704000	6.19e+06	50	704000	6.19e+06	-50	686000	6.189e+06	50	687000	6.189e+06	50	686000	6.189e+06	-50	687000	6.189e+06	-50	688000	6.189e+06	50	688000	6.189e+06	-50	691000	6.189e+06	50	692000	6.189e+06	50	691000	6.189e+06	-50	692000	6.189e+06	-50	693000	6.189e+06	50	693000	6.189e+06	-50	694000	6.189e+06	50	694000	6.189e+06	-50	695000	6.189e+06	50	695000	6.189e+06	-50	696000	6.189e+06	50	696000	6.189e+06	-50	697000	6.189e+06	50	697000	6.189e+06	-50	698000	6.189e+06	50	698000	6.189e+06	-50	699000	6.189e+06	50	699000	6.189e+06	-50	700000	6.189e+06	50	700000	6.189e+06	-50	701000	6.189e+06	50	701000	6.189e+06	-50	702000	6.189e+06	50	702000	6.189e+06	-50	703000	6.189e+06	50	703000	6.189e+06	-50	704000	6.189e+06	50	704000	6.189e+06	-50	686000	6.188e+06	50	687000	6.188e+06	50	686000	6.188e+06	-50	687000	6.188e+06	-50	688000	6.188e+06	50	688000	6.188e+06	-50	689000	6.189e+06	50	689000	6.188e+06	50	689000	6.189e+06	-50	689000	6.188e+06	-50	691000	6.188e+06	50	692000	6.188e+06	50	691000	6.188e+06	-50	692000	6.188e+06	-50	693000	6.188e+06	50	693000	6.188e+06	-50	694000	6.188e+06	50	694000	6.188e+06	-50	695000	6.188e+06	50	695000	6.188e+06	-50	696000	6.188e+06	50	696000	6.188e+06	-50	697000	6.188e+06	50	697000	6.188e+06	-50	698000	6.188e+06	50	698000	6.188e+06	-50	699000	6.188e+06	50	699000	6.188e+06	-50	700000	6.188e+06	50	700000	6.188e+06	-50	701000	6.188e+06	50	701000	6.188e+06	-50	702000	6.188e+06	50	702000	6.188e+06	-50	703000	6.188e+06	50	703000	6.188e+06	-50	704000	6.188e+06	50	704000	6.188e+06	-50	686000	6.187e+06	50	687000	6.187e+06	50	686000	6.187e+06	-50	687000	6.187e+06	-50	688000	6.187e+06	50	688000	6.187e+06	-50	689000	6.187e+06	50	689000	6.187e+06	-50	690000	6.188e+06	50	690000	6.187e+06	50	691000	6.187e+06	50	690000	6.188e+06	-50	690000	6.187e+06	-50	691000	6.187e+06	-50	692000	6.187e+06	50	692000	6.187e+06	-50	693000	6.187e+06	50	693000	6.187e+06	-50	694000	6.187e+06	50	694000	6.187e+06	-50	695000	6.187e+06	50	695000	6.187e+06	-50	696000	6.187e+06	50	696000	6.187e+06	-50	697000	6.187e+06	50	697000	6.187e+06	-50	698000	6.187e+06	50	698000	6.187e+06	-50	699000	6.187e+06	50	699000	6.187e+06	-50	700000	6.187e+06	50	700000	6.187e+06	-50	701000	6.187e+06	50	701000	6.187e+06	-50	702000	6.187e+06	50	702000	6.187e+06	-50	703000	6.187e+06	50	703000	6.187e+06	-50	704000	6.187e+06	50	704000	6.187e+06	-50	685000	6.187e+06	50	685000	6.186e+06	50	686000	6.186e+06	50	685000	6.187e+06	-50	685000	6.186e+06	-50	686000	6.186e+06	-50	687000	6.186e+06	50	687000	6.186e+06	-50	688000	6.186e+06	50	688000	6.186e+06	-50	689000	6.186e+06	50	689000	6.186e+06	-50	690000	6.186e+06	50	690000	6.186e+06	-50	691000	6.186e+06	50	691000	6.186e+06	-50	692000	6.186e+06	50	692000	6.186e+06	-50	693000	6.186e+06	50	693000	6.186e+06	-50	695000	6.186e+06	50	696000	6.186e+06	50	695000	6.186e+06	-50	696000	6.186e+06	-50	697000	6.186e+06	50	697000	6.186e+06	-50	698000	6.186e+06	50	698000	6.186e+06	-50	699000	6.186e+06	50	699000	6.186e+06	-50	700000	6.186e+06	50	700000	6.186e+06	-50	701000	6.186e+06	50	701000	6.186e+06	-50	702000	6.186e+06	50	702000	6.186e+06	-50	703000	6.186e+06	50	703000	6.186e+06	-50	704000	6.186e+06	50	704000	6.186e+06	-50	685000	6.185e+06	50	686000	6.185e+06	50	685000	6.185e+06	-50	686000	6.185e+06	-50	687000	6.185e+06	50	687000	6.185e+06	-50	688000	6.185e+06	50	688000	6.185e+06	-50	689000	6.185e+06	50	689000	6.185e+06	-50	690000	6.185e+06	50	690000	6.185e+06	-50	691000	6.185e+06	50	691000	6.185e+06	-50	692000	6.185e+06	50	692000	6.185e+06	-50	693000	6.185e+06	50	693000	6.185e+06	-50	695000	6.185e+06	50	696000	6.185e+06	50	695000	6.185e+06	-50	696000	6.185e+06	-50	697000	6.185e+06	50	697000	6.185e+06	-50	698000	6.185e+06	50	698000	6.185e+06	-50	699000	6.185e+06	50	699000	6.185e+06	-50	700000	6.185e+06	50	700000	6.185e+06	-50	701000	6.185e+06	50	701000	6.185e+06	-50	702000	6.185e+06	50	702000	6.185e+06	-50	703000	6.185e+06	50	703000	6.185e+06	-50	704000	6.185e+06	50	704000	6.185e+06	-50	683000	6.18
[...]
<CellData Scalars="scalars">
<DataArray type="Int32" Name="nodeid" format="ascii">92	93	94	95	142	143	144	145	192	193	194	195	243	244	245	291	292	293	294	295	341	342	343	2919	2920	2922	2921	2923	2925	390	391	392	393	2951	2955	2956	2958	2957	2954	2953	2963	2964	2967	2968	2970	2969	2971	2973	439	440	441	442	443	444	2987	486	487	488	489	490	491	492	493	494	534	535	536	537	538	539	540	541	542	543	544	584	585	586	587	588	589	590	591	592	593	594	632	633	634	635	636	637	638	639	640	641	642	643	644	682	683	684	685	686	687	688	689	690	691	692	693	694	727	728	729	3046	3045	731	732	733	734	735	736	737	738	739	740	741	742	743	744	777	778	3119	3120	3122	3121	3127	3128	3130	3129	3124	3139	3140	3142	3141	3131	3135	3136	3138	3137	3134	3133	3143	3144	3146	3145	782	783	784	785	786	787	788	789	790	791	792	793	794	827	828	829	3175	3179	3180	3183	3184	3186	3185	3181	3187	3188	3190	3189	3177	3195	3196	3198	3197	3192	3194	3193	832	833	834	835	836	837	838	839	840	841	842	843	844	877	878	879	3203	3204	3206	3205	881	882	883	884	885	886	887	888	889	890	891	892	893	894	926	927	928	929	930	931	932	933	3207	3208	3210	3209	3211	3212	3214	3213	936	937	938	939	940	941	942	943	944	976	977	978	979	980	981	982	983	3215	3219	3220	3223	3224	3226	3225	3221	3227	3228	3230	3229	3217	3235	3236	3238	3237	3232	3234	3233	986	987	988	989	990	991	992	993	994	1024	1025	1026	1027	1028	1029	1030	1031	1032	1033	3239	3240	3242	3241	1035	1036	1037	1038	1039	1040	1041	1042	1043	1044	1072	3243	3244	3246	3245	3247	3248	3259	3260	3262	3261	3251	3252	3255	3256	3258	3257	3253	3263	3264	3266	3265	1076	1077	1078	1079	1080	1081	1082	1083	1084	1085	1086	1087	1088	1089	1090	1091	1092	1093	1094	3267	3268	3270	3269	3275	3276	3278	3277	3272	3274	3273	1125	1126	1127	1128	1129	1130	1131	3279	3280	3282	3281	1133	1134	1135	1136	1137	1138	1139	1140	1141	1142	1143	1144	1170	1171	1172	1173	1174	1175	1176	1177	1178	1179	1180	3283	3284	3287	3288	3290	3289	3285	3295	3296	3298	3297	3292	3294	3303	3304	3306	3305	3300	3302	3301	1183	1184	1185	1186	1187	1188	1189	1190	1191	1192	1193	1194	1218	1219	1220	1221	1222	1223	1224	1225	1226	1227	1228	1229	1230	3307	3308	3310	3309	3311	3312	3314	3313	1233	1234	3315	3316	3318	3317	3319	3320	3322	3321	1237	1238	1239	1240	3323	3324	3326	3325	3327	3328	3330	3329	1243	3331	3333	1264	1265	1266	1267	1268	1269	1270	1271	1272	1273	1274	1275	1276	1277	1278	1279	1280	1281	3343	3344	3346	3345	3347	3348	3350	3349	3351	3352	3359	3360	3362	3361	3355	3356	3358	3357	3363	3367	3368	3370	3369	3375	3376	3378	3377	3371	3372	3374	3373	3383	3384	3386	3385	3387	3388	3390	3389	3391	3392	3394	3393	3381	3395	3396	3403	3404	3406	3405	3399	3400	3402	3401	3407	3408	3415	3416	3418	3417	3411	3412	3414	3413	3419	3420	3427	3428	3430	3429	3423	3424	3426	3425	3431	3432	3439	3440	3442	3441	3435	3436	3438	3437	3443	3447	3448	3450	3449	3455	3456	3458	3457	3451	3452	3454	3453	3463	3464	3466	3465	3460	3471	3472	3474	3473	3467	3468	3470	3469	3475	3476	3479	3480	3482	3481	3477	3487	3488	3490	3489	3491	3492	3494	3493	3550	3549	3552	3554	3553	3555	3556	3558	3559	3560	3562	3561	3563	3564	3566	3565	3567	3568	3570	3569	1317	1318	1319	1320	1321	1322	1323	1324	1325	1326	1327	3571	3572	3574	3573	3575	3576	3578	3577	3579	3580	3582	3581	3583	3584	3591	3592	3594	3593	3587	3588	3590	3589	3595	3599	3600	3602	3601	3607	3608	3610	3609	3603	3604	3606	3605	3615	3616	3618	3617	3619	3620	3622	3621	3614	3613	3627	3628	3630	3629	3624	3626	3625	3631	3632	3634	3633	3635	3636	3638	3637	3639	3640	3642	3641	3643	3644	3646	3645	3647	3648	3650	3649	3651	3655	3656	3658	3657	3654	3653	3663	3664	3666	3665	3660	3662	3661	3667	3671	3672	3674	3673	3670	3669	3679	3680	3682	3681	3683	3684	3686	3685	3678	3677	3687	3689	3698	3703	3704	3706	3705	3701	3707	3708	3715	3716	3718	3717	3711	3712	3714	3713	3723	3724	3726	3725	3727	3728	3730	3729	3722	3731	3732	3734	3733	3739	3740	3742	3741	3743	3744	3746	3745	3738	3737	3751	3752	3754	3753	3755	3756	3758	3757	3759	3760	3762	3761	3749	3767	3768	3770	3769	3764	3775	3776	3778	3777	3771	3772	3774	3773	3779	3780	3787	3788	3790	3789	3783	3784	3786	3785	3791	3792	3794	3793	3795	3796	3798	3797	1370	1371	1372	1373	1374	3799	3800	3802	3801	3803	3804	3806	3805	3807	3808	3815	3816	3818	3817	3811	3812	3814	3813	3819	3823	3824	3826	3825	3831	3832	3834	3833	3827	3828	3830	3829	3839	3840	3842	3841	3843	3844	3846	3845	3838	3837	3851	3852	3854	3853	3855	3856	3858	3857	3850	3849	3863	3864	3866	3865	3860	3862	3861	3867	3868	3870	3869	1383	1384	1385	1386	1387	1388	1389	1390	1391	1392	1393	1394	1409	3871	3875	3876	3878	3877	3879	3880	3882	3881	3873	3887	3888	3890	3889	3891	3892	3894	3893	3886	3885	3895	3896	3898	3897	3899	3900	3902	3901	1414	3903	3904	3906	3905	3907	3908	3910	3909	3911	3915	3916	3918	3917	3914	3913	3923	3924	3926	3925	3927	3928	3930	3929	3922	3921	3935	3936	3938	3937	3932	3943	3944	3946	3945	3939	3940	3942	3941	3947	3948	3955	3956	3958	3957	3951	3952	3954	3953	3959	3960	3967	3968	3970	3969	3963	3964	3966	3965	3971	3972	3974	3975	3976	3978	3977	3979	3980	3987	3988	3990	3989	3983	3984	3986	3985	3991	3992	3999	4000	4002	4001	3995	3996	3998	3997	4007	4008	4010	4009	4011	4012	4014	4013	4006	4015	4016	4018	4017	4023	4024	4026	4025	4027	4028	4030	4029	4022	4021	4035	4036	4038	4037	4032	4034	4033	4039	4040	4042	4041	1429	1430	1431	1432	1433	1434	1435	1436	1437	1438	1439	1440	1441	1442	1443	1444	4044	4047	4048	4050	4049	4051	4052	4059	4060	4062	4061	4055	4056	4058	4057	4067	4068	4070	4069	4071	4072	4074	4073	4066	4075	4076	4078	4077	4079	4080	4082	4081	1462	1463	1464	1465	1466	1467	1468	4083	4084	4086	4085	4087	4088	4090	4089	4091	4092	4094	4093	4099	4100	4102	4101	4103	4104	4106	4105	4098	4097	4111	4112	4114	4113	4108	4110	4109	4115	4116	4118	4117	4119	4120	4122	4121	1476	1477	1478	1479	1480	1481	1482	1483	1484	1485	1486	1487	1488	1489	1490	1491	1492	1493	4134	4133	4140	4142	4141	4143	4144	4146	4145	4138	4147	4148	4150	4149	4155	4156	4158	4157	4152	4167	4168	4170	4169	4159	4163	4164	4166	4165	4162	4161	4171	4172	4174	4173	1511	1512	1513	1514	1515	1516	1517	1518	1519	1520	1521	1522	1523	1524	1525	1526	1527	1528	1529	1530	1531	1532	1533	1534	1535	1536	1537	1538	1539	1540	1541	1542	1543	4190	4191	4192	4194	4193	4181	4202	4201	4206	4205	4198	4207	4208	4210	4209	4216	4218	4217	4219	4220	4222	4221	4214	4213	4227	4228	4230	4229	4224	4226	4225	4231	4232	4234	4233	1560	1561	1562	1563	1564	1565	1566	1567	1568	1569	1570	1571	1572	1573	1574	1575	1576	1577	1578	1579	1580	1581	1582	1583	1584	1585	1586	1587	1588	4235	4236	4238	4237	1590	1591	1592	1593	4239	4240	4242	4241	4243	4244	4246	4245	1607	1608	1609	1610	1611	1612	1615	1616	1617	1618	1619	1620	1621	1622	1623	1624	1625	1626	1627	1628	1629	1630	1631	1632	1633	1634	1635	1636	1637	4247	4248	4250	4249	4255	4256	4258	4257	4259	4260	4262	4263	4264	4266	4265	4267	4268	4270	4269	4253	4271	4272	4274	4273	1641	1642	1643	1666	1667	1668	1669	1670	1671	1672	1673	1674	1675	1676	1677	1678	1679	1680	1681	1682	1683	1684	1685	1686	1687	1688	4275	4276	4278	4277	1690	1691	1692	1693	1694	1718	1719	1720	1721	1722	1723	1724	1725	1726	4291	4292	4294	4293	1728	1729	1730	1731	1732	1733	1734	1735	1736	1737	1738	1739	1740	1741	1742	1743	1744	1769	1770	1771	1772	1773	1774	1775	1776	4335	4339	4340	4342	4341	4343	4347	4348	4350	4349	4346	4345	4337	4351	4352	4354	4355	4356	4358	4357	1779	1780	1781	4359	4360	4362	4361	1783	1784	1785	1786	1787	1788	1789	1790	1791	1792	1793	1794	1819	1820	1821	1822	1823	1824	1825	1826	4375	4376	4378	4377	4379	4380	4382	4381	1829	1830	1831	4383	4387	4388	4390	4389	4391	4395	4396	4398	4397	4394	4393	4385	4399	4400	4402	4403	4404	4406	4405	1834	1835	1836	1837	1838	1839	1840	1841	1842	1843	1844	1869	1870	1871	1872	1873	1874	1875	1876	1877	1878	1879	1880	1881	4407	4408	4410	4409	4411	4412	4414	4413	1884	1885	1886	1887	1888	1889	1890	1891	1892	1893	1894	1919	1920	1921	1922	1923	1924	1925	1926	1927	1928	1929	1930	1931	1932	1933	1934	1935	1936	1937	1938	1939	1940	1941	1942	1943	1944	1968	1969	1970	1971	1972	1973	1974	1975	1976	1977	1978	1979	1980	1981	1982	1983	1984	1985	1986	1987	1988	1989	1990	1991	1992	1993	1994	2019	2020	2021	2022	2023	2024	2025	2026	2027	2028	2029	2030	2031	2032	2033	2034	2035	2036	2037	2038	2039	2040	2041	2042	2043	2044	2069	2070	2071	2072	2073	2074	2075	2076	2077	2078	2079	2080	2081	2082	2083	2084	2085	2086	2087	2088	2089	2090	2091	2092	2093	2094	2120	2121	2122	2123	2124	2125	2126	2127	2128	2129	2130	2131	2132	2133	2134	2135	2136	2137	2138	2139	2140	2141	2142	2143	2144	2171	2172	2173	2174	2175	2176	2177	2178	2179	2180	2181	2182	2183	2184	2185	2186	2187	2188	2189	2190	2191	2192	2193	2194	2195	2221	2222	2223	2224	2225	2226	2227	2228	2229	2230	2231	2232	2233	2234	4523	4524	4526	4525	4527	4528	4530	4531	4532	4534	4533	2237	2238	2239	2240	2241	2242	2243	2244	2245	2271	2272	2273	2274	2275	2276	2277	2278	2279	2280	2281	2282	2283	2284	4563	4567	4568	4570	4569	4566	4565	4579	4580	4582	4581	4576	4578	4577	4572	4574	4573	2287	2288	2289	2290	2291	2292	2293	2294	2295	2320	2321	2322	2323	2324	2325	2326	2327	2328	2330	2331	2332	2333	2334	2335	2336	2337	2338	2339	2370	2371	2372	2373	2374	2375	2376	4587	4588	4590	2383	2384	2385	2386	2387	2418	2419	2420	2421	2422	2423	2424	2425	2468	2469	2470	2471	2472	2473	2474	2475	2519	2520	2521	2522	2523	2524	2525	2570	2571	2572	2573	2574	</DataArray>
<DataArray type="Int32" Name="nodenumber" format="ascii">1	2	3	4	5	6	7	8	9	10	11	12	13	14	15	16	17	18	19	20	21	22	23	24	25	27	26	28	29	30	31	32	33	34	35	36	38	37	40	39	41	42	43	44	46	45	47	48	49	50	51	52	53	54	55	56	57	58	59	60	61	62	63	64	65	66	67	68	69	70	71	72	73	74	75	76	77	78	79	80	81	82	83	84	85	86	87	88	89	90	91	92	93	94	95	96	97	98	99	100	101	102	103	104	105	106	107	108	109	110	111	112	113	114	115	117	116	118	119	120	121	122	123	124	125	126	127	128	129	130	131	132	133	134	135	137	136	138	139	141	140	142	150	151	153	152	143	144	145	147	146	149	148	154	155	157	156	158	159	160	161	162	163	164	165	166	167	168	169	170	171	172	173	174	175	176	178	179	181	180	177	183	184	186	185	182	187	188	190	189	191	193	192	194	195	196	197	198	199	200	201	202	203	204	205	206	207	208	209	210	211	213	212	214	215	216	217	218	219	220	221	222	223	224	225	226	227	228	229	230	231	232	233	234	235	236	237	239	238	240	241	243	242	244	245	246	247	248	249	250	251	252	253	254	255	256	257	258	259	260	261	262	263	265	266	268	267	264	270	271	273	272	269	274	275	277	276	278	280	279	281	282	283	284	285	286	287	288	289	290	291	292	293	294	295	296	297	298	299	300	301	303	302	304	305	306	307	308	309	310	311	312	313	314	315	316	318	317	319	320	328	329	331	330	321	322	324	325	327	326	323	332	333	335	334	336	337	338	339	340	341	342	343	344	345	346	347	348	349	350	351	352	353	354	355	356	358	357	359	360	362	361	363	365	364	366	367	368	369	370	371	372	373	374	376	375	377	378	379	380	381	382	383	384	385	386	387	388	389	390	391	392	393	394	395	396	397	398	399	400	401	403	404	406	405	402	407	408	410	409	411	419	412	413	415	414	416	418	417	420	421	422	423	424	425	426	427	428	429	430	431	432	433	434	435	436	437	438	439	440	441	442	443	444	445	446	448	447	449	450	452	451	453	454	455	456	458	457	459	460	462	461	463	464	465	466	467	468	470	469	471	472	474	473	475	476	477	478	479	480	481	482	483	484	485	486	487	488	489	490	491	492	493	494	495	496	497	499	498	500	501	503	502	504	505	510	511	513	512	506	507	509	508	514	515	516	518	517	523	524	526	525	519	520	522	521	527	528	530	529	531	532	534	533	536	537	539	538	535	540	541	546	547	549	548	542	543	545	544	550	551	556	557	559	558	552	553	555	554	560	561	566	567	569	568	562	563	565	564	570	571	576	577	579	578	572	573	575	574	580	581	582	584	583	589	590	592	591	585	586	588	587	593	594	596	595	597	602	603	605	604	598	599	601	600	606	607	609	610	612	611	608	613	614	616	615	617	618	620	619	622	621	623	625	624	626	627	632	628	629	631	630	633	634	636	635	637	638	640	639	641	642	643	644	645	646	647	648	649	650	651	652	653	655	654	656	657	659	658	660	661	663	662	664	665	670	671	673	672	666	667	669	668	674	675	676	678	677	683	684	686	685	679	680	682	681	687	688	690	689	691	692	694	693	696	695	697	698	700	699	701	703	702	704	705	707	706	708	709	711	710	712	713	715	714	716	717	719	718	720	721	723	722	724	725	726	728	727	730	729	731	732	734	733	735	737	736	738	739	740	742	741	744	743	745	746	748	747	749	750	752	751	754	753	755	756	757	759	760	762	761	758	763	764	769	770	772	771	765	766	768	767	773	774	776	775	777	778	780	779	785	781	782	784	783	786	787	789	788	790	791	793	792	795	794	796	797	799	798	800	801	803	802	805	806	808	807	804	809	810	812	811	813	818	819	821	820	814	815	817	816	822	823	828	829	831	830	824	825	827	826	832	833	835	834	836	837	839	838	840	841	842	843	844	845	846	848	847	849	850	852	851	853	854	859	860	862	861	855	856	858	857	863	864	865	867	866	872	873	875	874	868	869	871	870	876	877	879	878	880	881	883	882	885	884	886	887	889	888	890	891	893	892	895	894	896	897	899	898	900	902	901	903	904	906	905	907	908	909	910	911	912	913	914	915	916	917	918	919	920	921	922	924	923	926	927	929	928	925	930	931	933	932	934	935	937	936	939	938	940	941	943	942	944	945	947	946	948	949	950	952	951	953	954	956	955	957	958	959	961	960	963	962	964	965	967	966	968	969	971	970	973	972	974	975	977	976	978	983	984	986	985	979	980	982	981	987	988	993	994	996	995	989	990	992	991	997	998	1003	1004	1006	1005	999	1000	1002	1001	1007	1008	1013	1009	1010	1012	1011	1014	1015	1020	1021	1023	1022	1016	1017	1019	1018	1024	1025	1030	1031	1033	1032	1026	1027	1029	1028	1034	1035	1037	1036	1038	1039	1041	1040	1046	1042	1043	1045	1044	1047	1048	1050	1049	1051	1052	1054	1053	1056	1055	1057	1058	1060	1059	1061	1063	1062	1064	1065	1067	1066	1068	1069	1070	1071	1072	1073	1074	1075	1076	1077	1078	1079	1080	1081	1082	1083	1084	1085	1086	1088	1087	1089	1090	1095	1096	1098	1097	1091	1092	1094	1093	1099	1100	1102	1101	1103	1104	1106	1105	1111	1107	1108	1110	1109	1112	1113	1115	1114	1116	1117	1118	1119	1120	1121	1122	1123	1124	1126	1125	1127	1128	1130	1129	1131	1132	1134	1133	1135	1136	1138	1137	1139	1140	1142	1141	1144	1143	1145	1146	1148	1147	1149	1151	1150	1152	1153	1155	1154	1156	1157	1159	1158	1160	1161	1162	1163	1164	1165	1166	1167	1168	1169	1170	1171	1172	1173	1174	1175	1176	1177	1179	1178	1180	1182	1181	1183	1184	1186	1185	1191	1187	1188	1190	1189	1192	1193	1195	1194	1196	1204	1205	1207	1206	1197	1198	1199	1201	1200	1203	1202	1208	1209	1211	1210	1212	1213	1214	1215	1216	1217	1218	1219	1220	1221	1222	1223	1224	1225	1226	1227	1228	1229	1230	1231	1232	1233	1234	1235	1236	1237	1238	1239	1240	1241	1242	1243	1244	1245	1247	1248	1250	1249	1246	1252	1251	1254	1253	1259	1255	1256	1258	1257	1260	1262	1261	1263	1264	1266	1265	1268	1267	1269	1270	1272	1271	1273	1275	1274	1276	1277	1279	1278	1280	1281	1282	1283	1284	1285	1286	1287	1288	1289	1290	1291	1292	1293	1294	1295	1296	1297	1298	1299	1300	1301	1302	1303	1304	1305	1306	1307	1308	1309	1310	1312	1311	1313	1314	1315	1316	1317	1318	1320	1319	1321	1322	1324	1323	1325	1326	1327	1328	1329	1330	1331	1332	1333	1334	1335	1336	1337	1338	1339	1340	1341	1342	1343	1344	1345	1346	1347	1348	1349	1350	1351	1352	1353	1354	1355	1357	1356	1358	1359	1361	1360	1362	1363	1368	1364	1365	1367	1366	1370	1371	1373	1372	1369	1374	1375	1377	1376	1378	1379	1380	1381	1382	1383	1384	1385	1386	1387	1388	1389	1390	1391	1392	1393	1394	1395	1396	1397	1398	1399	1400	1401	1402	1403	1404	1405	1407	1406	1408	1409	1410	1411	1412	1413	1414	1415	1416	1417	1418	1419	1420	1421	1422	1423	1425	1424	1426	1427	1428	1429	1430	1431	1432	1433	1434	1435	1436	1437	1438	1439	1440	1441	1442	1443	1444	1445	1446	1447	1448	1449	1450	1451	1452	1453	1455	1454	1457	1458	1459	1461	1460	1463	1462	1456	1464	1465	1470	1466	1467	1469	1468	1471	1472	1473	1474	1475	1477	1476	1478	1479	1480	1481	1482	1483	1484	1485	1486	1487	1488	1489	1490	1491	1492	1493	1494	1495	1496	1497	1498	1499	1501	1500	1502	1503	1505	1504	1506	1507	1508	1509	1510	1511	1513	1512	1515	1516	1517	1519	1518	1521	1520	1514	1522	1523	1528	1524	1525	1527	1526	1529	1530	1531	1532	1533	1534	1535	1536	1537	1538	1539	1540	1541	1542	1543	1544	1545	1546	1547	1548	1549	1550	1551	1552	1553	1554	1556	1555	1557	1558	1560	1559	1561	1562	1563	1564	1565	1566	1567	1568	1569	1570	1571	1572	1573	1574	1575	1576	1577	1578	1579	1580	1581	1582	1583	1584	1585	1586	1587	1588	1589	1590	1591	1592	1593	1594	1595	1596	1597	1598	1599	1600	1601	1602	1603	1604	1605	1606	1607	1608	1609	1610	1611	1612	1613	1614	1615	1616	1617	1618	1619	1620	1621	1622	1623	1624	1625	1626	1627	1628	1629	1630	1631	1632	1633	1634	1635	1636	1637	1638	1639	1640	1641	1642	1643	1644	1645	1646	1647	1648	1649	1650	1651	1652	1653	1654	1655	1656	1657	1658	1659	1660	1661	1662	1663	1664	1665	1666	1667	1668	1669	1670	1671	1672	1673	1674	1675	1676	1677	1678	1679	1680	1681	1682	1683	1684	1685	1686	1687	1688	1689	1690	1691	1692	1693	1694	1695	1696	1697	1698	1699	1700	1701	1702	1703	1704	1705	1706	1707	1708	1709	1710	1711	1712	1713	1714	1715	1716	1717	1718	1719	1720	1721	1722	1723	1724	1725	1726	1727	1728	1729	1730	1731	1732	1733	1734	1735	1736	1737	1738	1739	1740	1741	1742	1744	1743	1745	1746	1751	1747	1748	1750	1749	1752	1753	1754	1755	1756	1757	1758	1759	1760	1761	1762	1763	1764	1765	1766	1767	1768	1769	1770	1771	1772	1773	1774	1775	1776	1777	1779	1778	1781	1780	1782	1783	1785	1784	1786	1788	1787	1789	1791	1790	1792	1793	1794	1795	1796	1797	1798	1799	1800	1801	1802	1803	1804	1805	1806	1807	1808	1809	1810	1811	1812	1813	1814	1815	1816	1817	1818	1819	1820	1821	1822	1823	1824	1825	1826	1827	1828	1829	1830	1831	1832	1833	1834	1835	1836	1837	1838	1839	1840	1841	1842	1843	1844	1845	1846	1847	1848	1849	1850	1851	1852	1853	1854	1855	1856	1857	1858	1859	1860	1861	1862	</DataArray>