<?xml version="1.0"?>
<VTKFile type="UnstructuredGrid" version="0.1" byte_order="BigEndian">
<UnstructuredGrid GhostLevel="0">
<Piece NumberOfPoints="4532" NumberOfCells="1874" ><Points>
<DataArray type="Float32" NumberOfComponents="3" format="ascii">
701000	6.204e+06	50	701000	6.203e+06	50	702000	6.204e+06	50	702000	6.203e+06	50	701000	6.204e+06	-50	701000	6.203e+06	-50	702000	6.204e+06	-50	702000	6.203e+06	-50	703000	6.204e+06	50	703000	6.203e+06	50	703000	6.204e+06	-50	703000	6.203e+06	-50	704000	6.204e+06	50	704000	6.203e+06	50	704000	6.204e+06	-50	704000	6.203e+06	-50	705000	6.204e+06	50	705000	6.203e+06	50	705000	6.204e+06	-50	705000	6.203e+06	-50	701000	6.202e+06	50	702000	6.202e+06	50	701000	6.202e+06	-50	702000	6.202e+06	-50	703000	6.202e+06	50	703000	6.202e+06	-50	704000	6.202e+06	50	704000	6.202e+06	-50	705000	6.202e+06	50	705000	6.202e+06	-50	701000	6.201e+06	50	702000	6.201e+06	50	701000	6.201e+06	-50	702000	6.201e+06	-50	703000	6.201e+06	50	703000	6.201e+06	-50	704000	6.201e+06	50	704000	6.201e+06	-50	705000	6.201e+06	50	705000	6.201e+06	-50	702000	6.2e+06	50	703000	6.2e+06	50	702000	6.2e+06	-50	703000	6.2e+06	-50	704000	6.2e+06	50	704000	6.2e+06	-50	705000	6.2e+06	50	705000	6.2e+06	-50	700000	6.2e+06	50	700000	6.199e+06	50	701000	6.2e+06	50	701000	6.199e+06	50	700000	6.2e+06	-50	700000	6.199e+06	-50	701000	6.2e+06	-50	701000	6.199e+06	-50	702000	6.199e+06	50	702000	6.199e+06	-50	703000	6.199e+06	50	703000	6.199e+06	-50	704000	6.199e+06	50	704000	6.199e+06	-50	705000	6.199e+06	50	705000	6.199e+06	-50	700000	6.198e+06	50	701000	6.198e+06	50	700000	6.198e+06	-50	701000	6.198e+06	-50	702000	6.198e+06	50	702000	6.198e+06	-50	703000	6.198e+06	50	703000	6.198e+06	-50	704000	6.198e+06	50	704000	6.198e+06	-50	705000	6.198e+06	50	705000	6.198e+06	-50	699000	6.198e+06	50	699000	6.197e+06	50	700000	6.197e+06	50	699000	6.198e+06	-50	699000	6.197e+06	-50	700000	6.197e+06	-50	701000	6.197e+06	50	701000	6.197e+06	-50	702000	6.197e+06	50	702000	6.197e+06	-50	703000	6.197e+06	50	703000	6.197e+06	-50	704000	6.197e+06	50	704000	6.197e+06	-50	705000	6.197e+06	50	705000	6.197e+06	-50	698000	6.197e+06	50	698000	6.196e+06	50	699000	6.196e+06	50	698000	6.197e+06	-50	698000	6.196e+06	-50	699000	6.196e+06	-50	700000	6.196e+06	50	700000	6.196e+06	-50	701000	6.196e+06	50	701000	6.196e+06	-50	702000	6.196e+06	50	702000	6.196e+06	-50	703000	6.196e+06	50	703000	6.196e+06	-50	704000	6.196e+06	50	704000	6.196e+06	-50	705000	6.196e+06	50	705000	6.196e+06	-50	695000	6.196e+06	50	695000	6.195e+06	50	696000	6.196e+06	50	696000	6.195e+06	50	695000	6.196e+06	-50	695000	6.195e+06	-50	696000	6.196e+06	-50	696000	6.195e+06	-50	697000	6.196e+06	50	697000	6.195e+06	50	697000	6.196e+06	-50	697000	6.195e+06	-50	698000	6.195e+06	50	699000	6.195e+06	50	698000	6.195e+06	-50	699000	6.195e+06	-50	700000	6.195e+06	50	700000	6.195e+06	-50	701000	6.195e+06	50	701000	6.195e+06	-50	702000	6.195e+06	50	702000	6.195e+06	-50	693000	6.195e+06	50	693000	6.194e+06	50	694000	6.195e+06	50	694000	6.194e+06	50	693000	6.195e+06	-50	693000	6.194e+06	-50	694000	6.195e+06	-50	694000	6.194e+06	-50	695000	6.194e+06	50	695000	6.194e+06	-50	696000	6.194e+06	50	696000	6.194e+06	-50	699000	6.194e+06	50	700000	6.194e+06	50	699000	6.194e+06	-50	700000	6.194e+06	-50	701000	6.194e+06	50	701000	6.194e+06	-50	702000	6.194e+06	50	702000	6.194e+06	-50	703000	6.195e+06	50	703000	6.194e+06	50	703000	6.195e+06	-50	703000	6.194e+06	-50	693000	6.193e+06	50	694000	6.193e+06	50	693000	6.193e+06	-50	694000	6.193e+06	-50	695000	6.193e+06	50	695000	6.193e+06	-50	696000	6.193e+06	50	696000	6.193e+06	-50	697000	6.194e+06	50	697000	6.193e+06	50	697000	6.194e+06	-50	697000	6.193e+06	-50	698000	6.194e+06	50	698000	6.193e+06	50	699000	6.193e+06	50	698000	6.194e+06	-50	698000	6.193e+06	-50	699000	6.193e+06	-50	700000	6.193e+06	50	700000	6.193e+06	-50	701000	6.193e+06	50	701000	6.193e+06	-50	702000	6.193e+06	50	702000	6.193e+06	-50	703000	6.193e+06	50	703000	6.193e+06	-50	704000	6.194e+06	50	704000	6.193e+06	50	704000	6.194e+06	-50	704000	6.193e+06	-50	691000	6.193e+06	50	691000	6.192e+06	50	692000	6.193e+06	50	692000	6.192e+06	50	691000	6.193e+06	-50	691000	6.192e+06	-50	692000	6.193e+06	-50	692000	6.192e+06	-50	693000	6.192e+06	50	693000	6.192e+06	-50	694000	6.192e+06	50	694000	6.192e+06	-50	695000	6.192e+06	50	695000	6.192e+06	-50	696000	6.192e+06	50	696000	6.192e+06	-50	697000	6.192e+06	50	697000	6.192e+06	-50	698000	6.192e+06	50	698000	6.192e+06	-50	699000	6.192e+06	50	699000	6.192e+06	-50	700000	6.192e+06	50	700000	6.192e+06	-50	701000	6.192e+06	50	701000	6.192e+06	-50	702000	6.192e+06	50	702000	6.192e+06	-50	703000	6.192e+06	50	703000	6.192e+06	-50	704000	6.192e+06	50	704000	6.192e+06	-50	691000	6.191e+06	50	692000	6.191e+06	50	691000	6.191e+06	-50	692000	6.191e+06	-50	693000	6.191e+06	50	693000	6.191e+06	-50	694000	6.191e+06	50	694000	6.191e+06	-50	695000	6.191e+06	50	695000	6.191e+06	-50	696000	6.191e+06	50	696000	6.191e+06	-50	697000	6.191e+06	50	697000	6.191e+06	-50	698000	6.191e+06	50	698000	6.191e+06	-50	699000	6.191e+06	50	699000	6.191e+06	-50	700000	6.191e+06	50	700000	6.191e+06	-50	701000	6.191e+06	50	701000	6.191e+06	-50	702000	6.191e+06	50	702000	6.191e+06	-50	703000	6.191e+06	50	703000	6.191e+06	-50	704000	6.191e+06	50	704000	6.191e+06	-50	686000	6.191e+06	50	686000	6.19e+06	50	687000	6.191e+06	50	687000	6.19e+06	50	686000	6.191e+06	-50	686000	6.19e+06	-50	687000	6.191e+06	-50	687000	6.19e+06	-50	688000	6.191e+06	50	688000	6.19e+06	50	688000	6.191e+06	-50	688000	6.19e+06	-50	689000	6.191e+06	50	689000	6.19e+06	50	689000	6.191e+06	-50	689000	6.19e+06	-50	690000	6.191e+06	50	690000	6.19e+06	50	690000	6.191e+06	-50	690000	6.19e+06	-50	691000	6.19e+06	50	691000	6.19e+06	-50	692000	6.19e+06	50	692000	6.19e+06	-50	693000	6.19e+06	50	693000	6.19e+06	-50	694000	6.19e+06	50	694000	6.19e+06	-50	695000	6.19e+06	50	695000	6.19e+06	-50	696000	6.19e+06	50	696000	6.19e+06	-50	697000	6.19e+06	50	697000	6.19e+06	-50	698000	6.19e+06	50	698000	6.19e+06	-50	699000	6.19e+06	50	699000	6.19e+06	-50	700000	6.19e+06	50	700000	6.19e+06	-50	701000	6.19e+06	50	701000	6.19e+06	-50	702000	6.19e+06	50	702000	6.19e+06	-50	703000	6.19e+06	50	703000	6.19e+06	-50	704000	6.19e+06	50	704000	6.19e+06	-50	686000	6.189e+06	50	687000	6.189e+06	50	686000	6.189e+06	-50	687000	6.189e+06	-50	688000	6.189e+06	50	688000	6.189e+06	-50	689000	6.189e+06	50	689000	6.189e+06	-50	690000	6.189e+06	50	690000	6.189e+06	-50	691000	6.189e+06	50	691000	6.189e+06	-50	692000	6.189e+06	50	692000	6.189e+06	-50	693000	6.189e+06	50	693000	6.189e+06	-50	694000	6.189e+06	50	694000	6.189e+06	-50	695000	6.189e+06	50	695000	6.189e+06	-50	696000	6.189e+06	50	696000	6.189e+06	-50	697000	6.189e+06	50	697000	6.189e+06	-50	698000	6.189e+06	50	698000	6.189e+06	-50	699000	6.189e+06	50	699000	6.189e+06	-50	700000	6.189e+06	50	700000	6.189e+06	-50	701000	6.189e+06	50	701000	6.189e+06	-50	702000	6.189e+06	50	702000	6.189e+06	-50	703000	6.189e+06	50	703000	6.189e+06	-50	704000	6.189e+06	50	704000	6.189e+06	-50	686000	6.188e+06	50	687000	6.188e+06	50	686000	6.188e+06	-50	687000	6.188e+06	-50	688000	6.188e+06	50	688000	6.188e+06	-50	689000	6.188e+06	50	689000	6.188e+06	-50	690000	6.188e+06	50	690000	6.188e+06	-50	691000	6.188e+06	50	691000	6.188e+06	-50	692000	6.188e+06	50	692000	6.188e+06	-50	693000	6.188e+06	50	693000	6.188e+06	-50	694000	6.188e+06	50	694000	6.188e+06	-50	695000	6.188e+06	50	695000	6.188e+06	-50	696000	6.188e+06	50	696000	6.188e+06	-50	697000	6.188e+06	50	697000	6.188e+06	-50	698000	6.188e+06	50	698000	6.188e+06	-50	699000	6.188e+06	50	699000	6.188e+06	-50	700000	6.188e+06	50	700000	6.188e+06	-50	701000	6.188e+06	50	702000	6.188e+06	50	701000	6.188e+06	-50	702000	6.188e+06	-50	703000	6.188e+06	50	703000	6.188e+06	-50	704000	6.188e+06	50	704000	6.188e+06	-50	686000	6.187e+06	50	687000	6.187e+06	50	686000	6.187e+06	-50	687000	6.187e+06	-50	688000	6.187e+06	50	688000	6.187e+06	-50	689000	6.187e+06	50	689000	6.187e+06	-50	690000	6.187e+06	50	690000	6.187e+06	-50	691000	6.187e+06	50	691000	6.187e+06	-50	692000	6.187e+06	50	692000	6.187e+06	-50	693000	6.187e+06	50	693000	6.187e+06	-50	694000	6.187e+06	50	694000	6.187e+06	-50	695000	6.187e+06	50	695000	6.187e+06	-50	696000	6.187e+06	50	696000	6.187e+06	-50	697000	6.187e+06	50	697000	6.187e+06	-50	698000	6.187e+06	50	698000	6.187e+06	-50	699000	6.187e+06	50	699000	6.187e+06	-50	700000	6.187e+06	50	700000	6.187e+06	-50	702000	6.187e+06	50	703000	6.187e+06	50	702000	6.187e+06	-50	703000	6.187e+06	-50	704000	6.187e+06	50	704000	6.187e+06	-50	686000	6.186e+06	50	687000	6.186e+06	50	686000	6.186e+06	-50	687000	6.186e+06	-50	688000	6.186e+06	50	688000	6.186e+06	-50	689000	6.186e+06	50	689000	6.186e+06	-50	690000	6.186e+06	50	690000	6.186e+06	-50	691000	6.186e+06	50	691000	6.186e+06	-50	692000	6.186e+06	50	692000	6.186e+06	-50	693000	6.186e+06	50	693000	6.186e+06	-50	694000	6.186e+06	50	694000	6.186e+06	-50	695000	6.186e+06	50	695000	6.186e+06	-50	696000	6.186e+06	50	696000	6.186e+06	-50	697000	6.186e+06	50	697000	6.186e+06	-50	698000	6.186e+06	50	698000	6.186e+06	-50	699000	6.186e+06	50	699000	6.186e+06	-50	700000	6.186e+06	50	700000	6.186e+06	-50	702000	6.186e+06	50	703000	6.186e+06	50	702000	6.186e+06	-50	703000	6.186e+06	-50	704000	6.186e+06	50	704000	6.186e+06	-50	685000	6.186e+06	50	685000	6.185e+06	50	686000	6.185e+06	50	685000	6.186e+06	-50	685000	6.185e+06	-50	686000	6.185e+06	-50	687000	6.185e+06	50	687000	6.185e+06	-50	688000	6.185e+06	50	688000	6.185e+06	-50	689000	6.185e+06	50	689000	6.185e+06	-50	690000	6.185e+06	50	690000	6.185e+06	-50	691000	6.185e+06	50	691000	6.185e+06	-50	692000	6.185e+06	50	692000	6.185e+06	-50	693000	6.185e+06	50	693000	6.185e+06	-50	694000	6.185e+06	50	694000	6.185e+06	-50	695000	6.185e+06	50	695000	6.185e+06	-50	696000	6.185e+06	50	696000	6.185e+06	-50	697000	6.185e+06	50	697000	6.185e+06	-50	698000	6.185e+06	50	698000	6.185e+06	-50	699000	6.185e+06	50	699000	6.185e+06	-50	700000	6.185e+06	50	700000	6.185e+06	-50	702000	6.185e+06	50	703000	6.185e+06	50	702000	6.185
[...]
<CellData Scalars="scalars">
<DataArray type="Int32" Name="nodeid" format="ascii">92	93	94	95	142	143	144	145	192	193	194	195	243	244	245	291	292	293	294	295	341	342	343	344	345	390	391	392	393	394	395	439	440	441	442	443	444	445	486	487	3019	3020	3022	3021	489	490	491	492	3023	3024	3026	3025	3027	3028	3035	3036	3038	3039	3040	3042	3041	3031	3032	3034	3033	534	535	536	3083	3084	3086	3085	3087	3091	3092	3094	3093	3103	3104	3106	3105	3100	3102	3101	3095	3096	3098	3097	3107	3108	3110	3109	540	541	542	543	3111	3115	3116	3118	3117	3114	3113	584	585	586	587	3127	3128	3130	3129	589	590	591	592	593	594	632	633	634	635	636	637	638	639	640	641	642	643	644	682	683	684	685	686	687	688	689	690	691	692	693	694	727	728	729	730	731	732	733	734	735	736	737	738	739	740	741	742	743	744	777	778	779	780	781	782	783	784	785	786	787	788	789	790	791	792	793	794	827	828	829	830	831	832	833	834	835	836	837	838	839	840	3195	3196	3198	3197	842	843	844	877	878	879	880	881	882	883	884	885	886	887	888	889	890	3207	3211	3212	3214	3213	3215	3219	3220	3222	3221	3218	3217	3209	3223	3224	3226	3227	3228	3230	3229	893	894	3248	3250	3249	927	928	929	930	931	932	933	934	935	936	937	938	939	940	3255	3256	3259	3260	3262	3261	3257	3263	3264	3266	3267	3268	3270	3271	3272	3274	3273	943	944	976	977	978	979	980	981	982	983	984	985	986	987	988	989	990	3279	3280	3282	3281	3287	3288	3290	3289	3284	3286	3285	993	994	1024	1025	1026	1027	3291	3292	3294	3293	3295	3296	3298	3297	1030	1031	1032	1033	1034	1035	1036	1037	1038	1039	1040	1041	1042	1043	1044	1072	1073	1074	1075	1076	1077	3299	3303	3304	3307	3308	3310	3309	3305	3311	3312	3314	3313	3301	3319	3320	3322	3321	3316	3318	3317	1080	1081	1082	1083	1084	1085	1086	1087	1088	1089	1090	1091	1092	1093	1094	1123	1124	1125	1126	1127	3323	3324	3326	3325	1129	1130	1131	1132	1133	1134	1135	1136	1137	1138	1139	1140	1141	1142	1143	1144	1170	1171	1172	1173	1174	1175	1176	1177	1178	1179	1180	1181	1182	1183	1184	1185	1186	1187	1188	1189	1190	1191	1192	1193	1194	1218	1219	1220	1221	1222	1223	1224	1225	1226	1227	1228	1229	1230	1231	3327	3328	3331	3332	3334	3333	3329	3335	3336	3338	3339	3340	3342	3343	3344	3346	3345	1234	3347	3348	3350	3349	3351	3352	3354	3353	1237	1238	1239	1240	3355	3356	3358	3357	3359	3360	3362	3361	1243	3363	3365	1264	1265	1266	1267	1268	1269	1270	1271	1272	1273	1274	1275	1276	1277	1278	1279	1280	1281	3367	3368	3370	3369	3375	3376	3378	3377	3372	3374	3373	3379	3380	3387	3388	3390	3389	3383	3384	3386	3385	3391	3395	3396	3398	3397	3403	3404	3406	3405	3399	3400	3402	3401	3411	3412	3414	3413	3415	3416	3418	3417	3419	3420	3422	3421	3409	3423	3424	3431	3432	3434	3433	3427	3428	3430	3429	3435	3436	3443	3444	3446	3445	3439	3440	3442	3441	3447	3448	3455	3456	3458	3457	3451	3452	3454	3453	3459	3460	3467	3468	3470	3469	3463	3464	3466	3465	3471	3475	3476	3478	3477	3483	3484	3486	3485	3479	3480	3482	3481	3491	3492	3494	3493	3488	3499	3500	3502	3501	3495	3496	3498	3497	3503	3504	3507	3508	3510	3509	3505	3515	3516	3518	3517	3519	3520	3522	3521	1312	3524	3526	3525	3527	3528	3530	3531	3532	3534	3533	3535	3536	3538	3537	3539	3540	3542	3541	1317	1318	1319	1320	1321	1322	1323	1324	1325	1326	1327	3543	3544	3546	3545	3547	3548	3550	3549	3551	3552	3554	3553	3555	3556	3563	3564	3566	3565	3559	3560	3562	3561	3567	3571	3572	3574	3573	3579	3580	3582	3581	3575	3576	3578	3577	3587	3588	3590	3589	3591	3592	3594	3593	3586	3585	3599	3600	3602	3601	3596	3598	3597	3603	3604	3606	3605	3607	3608	3610	3609	3611	3612	3614	3613	3615	3616	3618	3617	3623	3624	3626	3625	3627	3628	3630	3631	3632	3634	3633	3635	3636	3638	3637	3621	3639	3643	3644	3646	3645	3642	3641	3651	3652	3654	3653	3648	3650	3649	3655	3659	3660	3662	3661	3658	3657	3667	3668	3670	3669	3671	3672	3674	3673	3666	3665	3675	3677	3682	3687	3688	3690	3689	3685	3691	3692	3699	3700	3702	3701	3695	3696	3698	3697	3707	3708	3710	3709	3711	3712	3714	3713	3706	3715	3716	3718	3717	3723	3724	3726	3725	3727	3728	3730	3729	3722	3721	3735	3736	3738	3737	3739	3740	3742	3741	3743	3744	3746	3745	3733	3751	3752	3754	3753	3748	3759	3760	3762	3761	3755	3756	3758	3757	3763	3764	3771	3772	3774	3773	3767	3768	3770	3769	3775	3776	3778	3777	3779	3780	3782	3781	1370	1371	1372	1373	1374	3783	3784	3786	3785	3787	3788	3790	3789	3791	3792	3799	3800	3802	3801	3795	3796	3798	3797	3803	3807	3808	3810	3809	3815	3816	3818	3817	3811	3812	3814	3813	3823	3824	3826	3825	3827	3828	3830	3829	3822	3821	3835	3836	3838	3837	3839	3840	3842	3841	3834	3833	3847	3848	3850	3849	3844	3846	3845	3851	3852	3854	3853	1383	1384	1385	1386	1387	1388	3855	3856	3858	3857	1390	1391	1392	1393	1394	1409	3859	3863	3864	3866	3865	3867	3868	3870	3869	3861	3875	3876	3878	3877	3879	3880	3882	3881	3874	3873	3883	3884	3886	3885	3887	3888	3890	3889	1414	3891	3892	3894	3893	3895	3896	3898	3897	3899	3903	3904	3906	3905	3902	3901	3911	3912	3914	3913	3915	3916	3918	3917	3910	3909	3923	3924	3926	3925	3920	3931	3932	3934	3933	3927	3928	3930	3929	3935	3936	3943	3944	3946	3945	3939	3940	3942	3941	3947	3948	3955	3956	3958	3957	3951	3952	3954	3953	3959	3960	3962	3963	3964	3966	3965	3967	3968	3975	3976	3978	3977	3971	3972	3974	3973	3979	3980	3987	3988	3990	3989	3983	3984	3986	3985	3995	3996	3998	3997	3999	4000	4002	4001	3994	4003	4004	4006	4005	4011	4012	4014	4013	4015	4016	4018	4017	4010	4009	4023	4024	4026	4025	4020	4022	4021	4027	4028	4030	4029	1429	1430	1431	1432	1433	1434	1435	1436	1437	1438	1439	1440	1441	1442	1443	1444	4032	4035	4036	4038	4037	4039	4040	4047	4048	4050	4049	4043	4044	4046	4045	4055	4056	4058	4057	4059	4060	4062	4061	4054	4063	4064	4066	4065	4067	4068	4070	4069	1462	1463	1464	1465	1466	1467	1468	4071	4072	4074	4073	4075	4076	4078	4077	4079	4080	4082	4081	4087	4088	4090	4089	4091	4092	4094	4093	4086	4085	4099	4103	4104	4106	4105	4102	4101	4107	4108	4110	4109	4098	4097	4111	4112	4114	4113	4115	4116	4118	4117	1476	1477	1478	1479	1480	1481	1482	1483	1484	1485	1486	1487	1488	1489	1490	1491	1492	1493	4130	4129	4136	4138	4137	4139	4140	4142	4141	4134	4143	4144	4146	4145	4147	4148	4150	4149	4151	4152	4154	4153	1511	1512	1513	1514	1515	1516	1517	1518	1519	1520	1521	1522	1523	1524	4155	4156	4158	4157	4159	4160	4162	4161	1527	1528	1529	1530	1531	1532	1533	1534	1535	1536	1537	1538	1539	1540	1541	1542	1543	4186	4187	4188	4190	4189	4177	4198	4197	4202	4201	4194	4203	4204	4206	4205	4212	4214	4213	4215	4216	4218	4217	4210	4209	4223	4224	4226	4225	4220	4222	4221	1559	1560	1561	1562	1563	1564	1565	1566	1567	1568	1569	1570	1571	1572	1573	1574	4227	4231	4232	4234	4233	4230	4229	4239	4240	4242	4243	4244	4246	4245	4236	4238	4247	4248	4250	4249	1577	1578	1579	1580	1581	1582	1583	1584	1585	4251	4252	4254	4253	1587	1588	1589	1590	1591	1592	1593	4275	4276	4278	4277	4279	4280	4282	4281	1607	1608	1609	1610	1611	1612	1615	1616	1617	1618	1619	1620	1621	1622	1623	1624	1625	4283	4284	4286	4285	1627	1628	1629	1630	1631	1632	1633	1634	4287	4288	4290	4289	4295	4296	4298	4297	4299	4300	4302	4303	4304	4306	4305	4307	4308	4310	4309	4293	4311	4312	4314	4313	1638	1639	1640	1641	1642	1643	1666	1667	1668	1669	1670	1671	1672	1673	1674	1675	1676	1677	1678	1679	1680	1681	1682	1683	1684	1685	4315	4316	4318	4317	1687	1688	1689	1690	1691	1692	1693	1694	1718	1719	1720	1721	1722	1723	1724	1725	1726	1727	1728	1729	1730	1731	1732	1733	1734	1735	1736	1737	1738	1739	1740	1741	1742	1743	1744	1769	1770	1771	1772	1773	1774	1775	1776	1777	1778	1779	1780	1781	1782	1783	1784	1785	1786	1787	1788	1789	1790	1791	1792	1793	1794	1819	1820	1821	1822	1823	4351	4352	4355	4356	4358	4357	4353	4359	4360	4362	4363	4364	4366	4367	4368	4370	4369	1826	1827	1828	1829	1830	1831	1832	1833	1834	1835	1836	1837	1838	1839	1840	1841	1842	1843	1844	1869	1870	1871	1872	1873	4375	4376	4378	4377	4383	4384	4386	4385	4380	4382	4381	1876	1877	1878	1879	1880	1881	1882	1883	1884	1885	1886	1887	1888	1889	1890	1891	1892	1893	1894	1919	1920	1921	1922	1923	1924	1925	1926	1927	1928	1929	1930	1931	1932	1933	1934	1935	1936	1937	1938	1939	1940	1941	1942	1943	1944	1968	1969	1970	1971	1972	1973	1974	1975	1976	1977	1978	1979	1980	1981	1982	1983	1984	1985	1986	1987	1988	1989	1990	1991	1992	1993	1994	2019	2020	4419	4420	4422	4421	2022	2023	2024	2025	2026	2027	2028	2029	2030	2031	2032	2033	2034	2035	2036	2037	2038	2039	2040	2041	2042	2043	2044	2069	4423	4424	4426	4425	4431	4432	4434	4433	4428	4443	4444	4446	4445	4435	4439	4440	4442	4441	4438	4437	4447	4448	4450	4449	2073	2074	2075	2076	2077	2078	2079	2080	2081	2082	2083	2084	2085	2086	2087	2088	2089	2090	2091	2092	2093	2094	2120	4451	4452	4454	4453	2122	2123	2124	2125	2126	2127	2128	2129	2130	2131	2132	2133	2134	2135	2136	2137	2138	2139	2140	2141	2142	2143	2144	2171	2172	2173	2174	2175	2176	2177	2178	2179	2180	2181	2182	2183	2184	2185	2186	2187	2188	2189	2190	2191	2192	2193	2194	2195	2221	2222	2223	2224	2225	2226	2227	2228	2229	2230	2231	2232	2233	2234	2235	2236	2237	2238	2239	2240	2241	2242	2243	2244	2245	2271	2272	2273	2274	2275	2276	2277	2278	2279	2280	2281	2282	2283	2284	2285	2286	2287	2288	2289	2290	2291	2292	2293	2294	2295	2320	2321	2322	2323	2324	2325	2326	2327	2328	2330	2331	2332	2333	2334	2335	2336	2337	2338	2339	2370	2371	2372	2373	2374	2375	2376	2382	2383	2384	2385	4471	4472	4475	4476	4473	4479	2418	2419	2420	2421	2422	2423	2424	2425	2468	2469	2470	2471	2472	2473	2474	4559	4560	4561	2519	2520	2521	2522	2523	4571	4572	4574	4573	4579	4581	2570	2571	2572	2573	4599	</DataArray>
<DataArray type="Int32" Name="nodenumber" format="ascii">1	2	3	4	5	6	7	8	9	10	11	12	13	14	15	16	17	18	19	20	21	22	23	24	25	26	27	28	29	30	31	32	33	34	35	36	37	38	39	40	41	42	44	43	45	46	47	48	49	50	52	51	53	54	59	60	65	61	62	64	63	55	56	58	57	66	67	68	69	70	72	71	73	74	75	77	76	82	83	85	84	86	88	87	78	79	81	80	89	90	92	91	93	94	95	96	97	98	99	101	100	103	102	104	105	106	107	108	109	111	110	112	113	114	115	116	117	118	119	120	121	122	123	124	125	126	127	128	129	130	131	132	133	134	135	136	137	138	139	140	141	142	143	144	145	146	147	148	149	150	151	152	153	154	155	156	157	158	159	160	161	162	163	164	165	166	167	168	169	170	171	172	173	174	175	176	177	178	179	180	181	182	183	184	185	186	187	188	189	190	191	192	193	194	195	197	196	198	199	200	201	202	203	204	205	206	207	208	209	210	211	212	213	214	215	216	217	219	218	221	222	223	225	224	227	226	220	228	229	234	230	231	233	232	235	236	237	239	238	240	241	242	243	244	245	246	247	248	249	250	251	252	253	254	255	257	258	260	259	256	261	262	270	263	264	269	265	266	268	267	271	272	273	274	275	276	277	278	279	280	281	282	283	284	285	286	287	288	289	291	290	292	293	295	294	296	298	297	299	300	301	302	303	304	305	306	308	307	309	310	312	311	313	314	315	316	317	318	319	320	321	322	323	324	325	326	327	328	329	330	331	332	333	334	335	336	338	339	341	340	337	343	344	346	345	342	347	348	350	349	351	353	352	354	355	356	357	358	359	360	361	362	363	364	365	366	367	368	369	370	371	372	373	374	375	377	376	378	379	380	381	382	383	384	385	386	387	388	389	390	391	392	393	394	395	396	397	398	399	400	401	402	403	404	405	406	407	408	409	410	411	412	413	414	415	416	417	418	419	420	421	422	423	424	425	426	427	428	429	430	431	432	433	434	436	437	439	438	435	440	441	449	442	443	448	444	445	447	446	450	451	452	454	453	455	456	458	457	459	460	461	462	463	464	466	465	467	468	470	469	471	472	473	474	475	476	477	478	479	480	481	482	483	484	485	486	487	488	489	490	491	492	493	495	494	496	497	499	498	500	502	501	503	504	509	510	512	511	505	506	508	507	513	514	515	517	516	522	523	525	524	518	519	521	520	526	527	529	528	530	531	533	532	535	536	538	537	534	539	540	545	546	548	547	541	542	544	543	549	550	555	556	558	557	551	552	554	553	559	560	565	566	568	567	561	562	564	563	569	570	575	576	578	577	571	572	574	573	579	580	581	583	582	588	589	591	590	584	585	587	586	592	593	595	594	596	601	602	604	603	597	598	600	599	605	606	608	609	611	610	607	612	613	615	614	616	617	619	618	620	621	623	622	624	625	630	626	627	629	628	631	632	634	633	635	636	638	637	639	640	641	642	643	644	645	646	647	648	649	650	651	653	652	654	655	657	656	658	659	661	660	662	663	668	669	671	670	664	665	667	666	672	673	674	676	675	681	682	684	683	677	678	680	679	685	686	688	687	689	690	692	691	694	693	695	696	698	697	699	701	700	702	703	705	704	706	707	709	708	710	711	713	712	714	715	717	716	718	719	721	720	722	723	728	724	725	727	726	730	731	733	732	729	734	735	736	738	737	740	739	741	742	744	743	745	747	746	748	749	750	752	751	754	753	755	756	758	757	759	760	762	761	764	763	765	766	767	769	770	772	771	768	773	774	779	780	782	781	775	776	778	777	783	784	786	785	787	788	790	789	795	791	792	794	793	796	797	799	798	800	801	803	802	805	804	806	807	809	808	810	811	813	812	815	816	818	817	814	819	820	822	821	823	828	829	831	830	824	825	827	826	832	833	838	839	841	840	834	835	837	836	842	843	845	844	846	847	849	848	850	851	852	853	854	855	856	858	857	859	860	862	861	863	864	869	870	872	871	865	866	868	867	873	874	875	877	876	882	883	885	884	878	879	881	880	886	887	889	888	890	891	893	892	895	894	896	897	899	898	900	901	903	902	905	904	906	907	909	908	910	912	911	913	914	916	915	917	918	919	920	921	922	923	924	926	925	927	928	929	930	931	932	933	934	935	937	936	939	940	942	941	938	943	944	946	945	947	948	950	949	952	951	953	954	956	955	957	958	960	959	961	962	963	965	964	966	967	969	968	970	971	972	974	973	976	975	977	978	980	979	981	982	984	983	986	985	987	988	990	989	991	996	997	999	998	992	993	995	994	1000	1001	1006	1007	1009	1008	1002	1003	1005	1004	1010	1011	1016	1017	1019	1018	1012	1013	1015	1014	1020	1021	1026	1022	1023	1025	1024	1027	1028	1033	1034	1036	1035	1029	1030	1032	1031	1037	1038	1043	1044	1046	1045	1039	1040	1042	1041	1047	1048	1050	1049	1051	1052	1054	1053	1059	1055	1056	1058	1057	1060	1061	1063	1062	1064	1065	1067	1066	1069	1068	1070	1071	1073	1072	1074	1076	1075	1077	1078	1080	1079	1081	1082	1083	1084	1085	1086	1087	1088	1089	1090	1091	1092	1093	1094	1095	1096	1097	1098	1099	1101	1100	1102	1103	1108	1109	1111	1110	1104	1105	1107	1106	1112	1113	1115	1114	1116	1117	1119	1118	1124	1120	1121	1123	1122	1125	1126	1128	1127	1129	1130	1131	1132	1133	1134	1135	1136	1137	1139	1138	1140	1141	1143	1142	1144	1145	1147	1146	1148	1149	1151	1150	1152	1153	1155	1154	1157	1156	1158	1159	1160	1162	1161	1164	1163	1165	1166	1168	1167	1170	1169	1171	1172	1174	1173	1175	1176	1178	1177	1179	1180	1181	1182	1183	1184	1185	1186	1187	1188	1189	1190	1191	1192	1193	1194	1195	1196	1198	1197	1199	1201	1200	1202	1203	1205	1204	1210	1206	1207	1209	1208	1211	1212	1214	1213	1215	1216	1218	1217	1219	1220	1221	1222	1223	1224	1225	1226	1227	1228	1229	1230	1231	1232	1233	1234	1236	1235	1237	1238	1240	1239	1241	1242	1243	1244	1245	1246	1247	1248	1249	1250	1251	1252	1253	1254	1255	1256	1257	1258	1260	1261	1263	1262	1259	1265	1264	1267	1266	1272	1268	1269	1271	1270	1273	1275	1274	1276	1277	1279	1278	1281	1280	1282	1283	1285	1284	1286	1288	1287	1289	1290	1291	1292	1293	1294	1295	1296	1297	1298	1299	1300	1301	1302	1303	1304	1305	1306	1307	1309	1308	1311	1310	1312	1313	1318	1314	1315	1317	1316	1319	1324	1320	1321	1323	1322	1325	1326	1327	1328	1329	1330	1331	1332	1333	1334	1335	1337	1336	1338	1339	1340	1341	1342	1343	1344	1345	1346	1348	1347	1349	1350	1352	1351	1353	1354	1355	1356	1357	1358	1359	1360	1361	1362	1363	1364	1365	1366	1367	1368	1369	1370	1371	1373	1372	1374	1375	1376	1377	1378	1379	1380	1381	1382	1383	1385	1384	1386	1387	1389	1388	1390	1391	1396	1392	1393	1395	1394	1398	1399	1401	1400	1397	1402	1403	1405	1404	1406	1407	1408	1409	1410	1411	1412	1413	1414	1415	1416	1417	1418	1419	1420	1421	1422	1423	1424	1425	1426	1427	1428	1429	1430	1431	1432	1433	1435	1434	1436	1437	1438	1439	1440	1441	1442	1443	1444	1445	1446	1447	1448	1449	1450	1451	1452	1453	1454	1455	1456	1457	1458	1459	1460	1461	1462	1463	1464	1465	1466	1467	1468	1469	1470	1471	1472	1473	1474	1475	1476	1477	1478	1479	1480	1481	1482	1483	1484	1485	1486	1487	1488	1489	1490	1491	1492	1493	1494	1495	1496	1497	1498	1499	1500	1501	1502	1503	1505	1506	1508	1507	1504	1509	1510	1518	1511	1512	1517	1513	1514	1516	1515	1519	1520	1521	1522	1523	1524	1525	1526	1527	1528	1529	1530	1531	1532	1533	1534	1535	1536	1537	1538	1539	1540	1541	1542	1543	1544	1546	1545	1547	1548	1550	1549	1551	1553	1552	1554	1555	1556	1557	1558	1559	1560	1561	1562	1563	1564	1565	1566	1567	1568	1569	1570	1571	1572	1573	1574	1575	1576	1577	1578	1579	1580	1581	1582	1583	1584	1585	1586	1587	1588	1589	1590	1591	1592	1593	1594	1595	1596	1597	1598	1599	1600	1601	1602	1603	1604	1605	1606	1607	1608	1609	1610	1611	1612	1613	1614	1615	1616	1617	1618	1619	1620	1621	1622	1623	1624	1625	1626	1627	1628	1629	1631	1630	1632	1633	1634	1635	1636	1637	1638	1639	1640	1641	1642	1643	1644	1645	1646	1647	1648	1649	1650	1651	1652	1653	1654	1655	1656	1657	1659	1658	1660	1661	1663	1662	1664	1672	1673	1675	1674	1665	1666	1667	1669	1668	1671	1670	1676	1677	1679	1678	1680	1681	1682	1683	1684	1685	1686	1687	1688	1689	1690	1691	1692	1693	1694	1695	1696	1697	1698	1699	1700	1701	1702	1703	1704	1706	1705	1707	1708	1709	1710	1711	1712	1713	1714	1715	1716	1717	1718	1719	1720	1721	1722	1723	1724	1725	1726	1727	1728	1729	1730	1731	1732	1733	1734	1735	1736	1737	1738	1739	1740	1741	1742	1743	1744	1745	1746	1747	1748	1749	1750	1751	1752	1753	1754	1755	1756	1757	1758	1759	1760	1761	1762	1763	1764	1765	1766	1767	1768	1769	1770	1771	1772	1773	1774	1775	1776	1777	1778	1779	1780	1781	1782	1783	1784	1785	1786	1787	1788	1789	1790	1791	1792	1793	1794	1795	1796	1797	1798	1799	1800	1801	1802	1803	1804	1805	1806	1807	1808	1809	1810	1811	1812	1813	1814	1815	1816	1817	1818	1819	1820	1821	1822	1823	1824	1825	1826	1827	1828	1829	1830	1831	1832	1833	1834	1835	1836	1838	1839	1837	1840	1841	1842	1843	1844	1845	1846	1847	1848	1849	1850	1851	1852	1853	1854	1855	1856	1857	1858	1859	1860	1861	1862	1863	1864	1865	1867	1866	1868	1869	1870	1871	1872	1873	1874	</DataArray>